<?xml version="1.0" encoding="UTF-8"?>

<!-- generated on 03-04-2017 15:45:24 by SUMO gui Version 0.29.0
<?xml version="1.0" encoding="UTF-8"?>

<configuration xmlns:xsi="http://www.w3.org/2001/XMLSchema-instance" xsi:noNamespaceSchemaLocation="http://sumo.dlr.de/xsd/sumo-gui.exeConfiguration.xsd">

    <input>
        <net-file value="data/cross.net.xml"/>
        <route-files value="data/cross.rou.xml"/>
        <additional-files value="data/cross.add.xml"/>
    </input>

    <output>
        <queue-output value="queue.xml"/>
        <tripinfo-output value="tripinfo.xml"/>
    </output>

    <time>
        <begin value="0"/>
    </time>

    <report>
        <verbose value="true"/>
        <duration-log.statistics value="true"/>
        <no-step-log value="true"/>
    </report>

    <traci_server>
        <remote-port value="53622"/>
    </traci_server>

</configuration>
-->

<queue-export xmlns:xsi="http://www.w3.org/2001/XMLSchema-instance" xsi:noNamespaceSchemaLocation="http://sumo.dlr.de/xsd/queue_file.xsd">
    <data timestep="0.00">
        <lanes>
            <lane id="51o_0" queueing_time="0.00" queueing_length="0.00" queueing_length_experimental="9.90"/>
        </lanes>
    </data>
    <data timestep="1.00">
        <lanes>
            <lane id="51o_0" queueing_time="0.00" queueing_length="0.00" queueing_length_experimental="9.53"/>
            <lane id="53o_0" queueing_time="0.00" queueing_length="0.00" queueing_length_experimental="9.90"/>
        </lanes>
    </data>
    <data timestep="2.00">
        <lanes>
            <lane id="51o_0" queueing_time="0.00" queueing_length="0.00" queueing_length_experimental="8.38"/>
            <lane id="53o_0" queueing_time="0.00" queueing_length="0.00" queueing_length_experimental="9.61"/>
        </lanes>
    </data>
    <data timestep="3.00">
        <lanes>
            <lane id="53o_0" queueing_time="0.00" queueing_length="0.00" queueing_length_experimental="8.88"/>
        </lanes>
    </data>
    <data timestep="4.00">
        <lanes>
            <lane id="51o_0" queueing_time="0.00" queueing_length="0.00" queueing_length_experimental="9.90"/>
            <lane id="53o_0" queueing_time="0.00" queueing_length="0.00" queueing_length_experimental="7.88"/>
        </lanes>
    </data>
    <data timestep="5.00">
        <lanes>
            <lane id="51o_0" queueing_time="0.00" queueing_length="0.00" queueing_length_experimental="9.28"/>
            <lane id="53o_0" queueing_time="0.00" queueing_length="0.00" queueing_length_experimental="6.62"/>
        </lanes>
    </data>
    <data timestep="6.00">
        <lanes/>
    </data>
    <data timestep="7.00">
        <lanes/>
    </data>
    <data timestep="8.00">
        <lanes>
            <lane id="51o_0" queueing_time="0.00" queueing_length="0.00" queueing_length_experimental="9.90"/>
        </lanes>
    </data>
    <data timestep="9.00">
        <lanes>
            <lane id="51o_0" queueing_time="0.00" queueing_length="0.00" queueing_length_experimental="9.47"/>
        </lanes>
    </data>
    <data timestep="10.00">
        <lanes>
            <lane id="51o_0" queueing_time="0.00" queueing_length="0.00" queueing_length_experimental="8.91"/>
        </lanes>
    </data>
    <data timestep="11.00">
        <lanes>
            <lane id="51o_0" queueing_time="0.00" queueing_length="0.00" queueing_length_experimental="7.95"/>
        </lanes>
    </data>
    <data timestep="12.00">
        <lanes>
            <lane id="51o_0" queueing_time="0.00" queueing_length="0.00" queueing_length_experimental="6.74"/>
        </lanes>
    </data>
    <data timestep="13.00">
        <lanes>
            <lane id="51o_0" queueing_time="0.00" queueing_length="0.00" queueing_length_experimental="9.90"/>
        </lanes>
    </data>
    <data timestep="14.00">
        <lanes>
            <lane id="51o_0" queueing_time="1.00" queueing_length="9.81" queueing_length_experimental="9.81"/>
        </lanes>
    </data>
    <data timestep="15.00">
        <lanes>
            <lane id="51o_0" queueing_time="0.00" queueing_length="0.00" queueing_length_experimental="9.09"/>
        </lanes>
    </data>
    <data timestep="16.00">
        <lanes>
            <lane id="51o_0" queueing_time="0.00" queueing_length="0.00" queueing_length_experimental="8.09"/>
        </lanes>
    </data>
    <data timestep="17.00">
        <lanes/>
    </data>
    <data timestep="18.00">
        <lanes>
            <lane id="51o_0" queueing_time="0.00" queueing_length="0.00" queueing_length_experimental="9.90"/>
        </lanes>
    </data>
    <data timestep="19.00">
        <lanes>
            <lane id="51o_0" queueing_time="0.00" queueing_length="0.00" queueing_length_experimental="9.77"/>
            <lane id="54o_0" queueing_time="0.00" queueing_length="0.00" queueing_length_experimental="9.90"/>
        </lanes>
    </data>
    <data timestep="20.00">
        <lanes>
            <lane id="51o_0" queueing_time="0.00" queueing_length="0.00" queueing_length_experimental="8.90"/>
            <lane id="54o_0" queueing_time="0.00" queueing_length="0.00" queueing_length_experimental="9.33"/>
        </lanes>
    </data>
    <data timestep="21.00">
        <lanes>
            <lane id="54o_0" queueing_time="0.00" queueing_length="0.00" queueing_length_experimental="8.01"/>
        </lanes>
    </data>
    <data timestep="22.00">
        <lanes>
            <lane id="51o_0" queueing_time="0.00" queueing_length="0.00" queueing_length_experimental="9.90"/>
        </lanes>
    </data>
    <data timestep="23.00">
        <lanes>
            <lane id="51o_0" queueing_time="0.00" queueing_length="0.00" queueing_length_experimental="9.66"/>
            <lane id="54o_0" queueing_time="0.00" queueing_length="0.00" queueing_length_experimental="9.90"/>
        </lanes>
    </data>
    <data timestep="24.00">
        <lanes>
            <lane id="51o_0" queueing_time="0.00" queueing_length="0.00" queueing_length_experimental="9.03"/>
            <lane id="54o_0" queueing_time="0.00" queueing_length="0.00" queueing_length_experimental="9.61"/>
        </lanes>
    </data>
    <data timestep="25.00">
        <lanes>
            <lane id="51o_0" queueing_time="0.00" queueing_length="0.00" queueing_length_experimental="8.08"/>
            <lane id="54o_0" queueing_time="0.00" queueing_length="0.00" queueing_length_experimental="8.60"/>
        </lanes>
    </data>
    <data timestep="26.00">
        <lanes>
            <lane id="53o_0" queueing_time="0.00" queueing_length="0.00" queueing_length_experimental="9.90"/>
            <lane id="54o_0" queueing_time="0.00" queueing_length="0.00" queueing_length_experimental="7.42"/>
        </lanes>
    </data>
    <data timestep="27.00">
        <lanes>
            <lane id="51o_0" queueing_time="0.00" queueing_length="0.00" queueing_length_experimental="9.90"/>
            <lane id="53o_0" queueing_time="0.00" queueing_length="0.00" queueing_length_experimental="9.21"/>
        </lanes>
    </data>
    <data timestep="28.00">
        <lanes>
            <lane id="51o_0" queueing_time="0.00" queueing_length="0.00" queueing_length_experimental="9.78"/>
            <lane id="53o_0" queueing_time="0.00" queueing_length="0.00" queueing_length_experimental="8.13"/>
            <lane id="54o_0" queueing_time="0.00" queueing_length="0.00" queueing_length_experimental="9.90"/>
        </lanes>
    </data>
    <data timestep="29.00">
        <lanes>
            <lane id="51o_0" queueing_time="0.00" queueing_length="0.00" queueing_length_experimental="9.10"/>
            <lane id="52o_0" queueing_time="0.00" queueing_length="0.00" queueing_length_experimental="9.90"/>
            <lane id="53o_0" queueing_time="0.00" queueing_length="0.00" queueing_length_experimental="6.91"/>
            <lane id="54o_0" queueing_time="0.00" queueing_length="0.00" queueing_length_experimental="9.67"/>
        </lanes>
    </data>
    <data timestep="30.00">
        <lanes>
            <lane id="51o_0" queueing_time="0.00" queueing_length="0.00" queueing_length_experimental="7.98"/>
            <lane id="52o_0" queueing_time="0.00" queueing_length="0.00" queueing_length_experimental="9.40"/>
            <lane id="54o_0" queueing_time="0.00" queueing_length="0.00" queueing_length_experimental="8.93"/>
        </lanes>
    </data>
    <data timestep="31.00">
        <lanes>
            <lane id="51o_0" queueing_time="0.00" queueing_length="0.00" queueing_length_experimental="6.63"/>
            <lane id="52o_0" queueing_time="0.00" queueing_length="0.00" queueing_length_experimental="8.20"/>
            <lane id="54o_0" queueing_time="0.00" queueing_length="0.00" queueing_length_experimental="7.71"/>
        </lanes>
    </data>
    <data timestep="32.00">
        <lanes>
            <lane id="51o_0" queueing_time="0.00" queueing_length="0.00" queueing_length_experimental="9.90"/>
            <lane id="54o_0" queueing_time="0.00" queueing_length="0.00" queueing_length_experimental="6.35"/>
        </lanes>
    </data>
    <data timestep="33.00">
        <lanes>
            <lane id="51o_0" queueing_time="0.00" queueing_length="0.00" queueing_length_experimental="9.63"/>
            <lane id="52o_0" queueing_time="0.00" queueing_length="0.00" queueing_length_experimental="9.90"/>
        </lanes>
    </data>
    <data timestep="34.00">
        <lanes>
            <lane id="51o_0" queueing_time="0.00" queueing_length="0.00" queueing_length_experimental="8.95"/>
            <lane id="52o_0" queueing_time="0.00" queueing_length="0.00" queueing_length_experimental="9.63"/>
            <lane id="53o_0" queueing_time="0.00" queueing_length="0.00" queueing_length_experimental="9.90"/>
        </lanes>
    </data>
    <data timestep="35.00">
        <lanes>
            <lane id="51o_0" queueing_time="0.00" queueing_length="0.00" queueing_length_experimental="8.01"/>
            <lane id="52o_0" queueing_time="0.00" queueing_length="0.00" queueing_length_experimental="8.70"/>
            <lane id="53o_0" queueing_time="0.00" queueing_length="0.00" queueing_length_experimental="9.26"/>
        </lanes>
    </data>
    <data timestep="36.00">
        <lanes>
            <lane id="51o_0" queueing_time="0.00" queueing_length="0.00" queueing_length_experimental="6.84"/>
            <lane id="52o_0" queueing_time="0.00" queueing_length="0.00" queueing_length_experimental="7.63"/>
        </lanes>
    </data>
    <data timestep="37.00">
        <lanes>
            <lane id="51o_0" queueing_time="0.00" queueing_length="0.00" queueing_length_experimental="9.90"/>
        </lanes>
    </data>
    <data timestep="38.00">
        <lanes>
            <lane id="51o_0" queueing_time="0.00" queueing_length="0.00" queueing_length_experimental="9.23"/>
        </lanes>
    </data>
    <data timestep="39.00">
        <lanes>
            <lane id="51o_0" queueing_time="0.00" queueing_length="0.00" queueing_length_experimental="8.42"/>
        </lanes>
    </data>
    <data timestep="40.00">
        <lanes/>
    </data>
    <data timestep="41.00">
        <lanes/>
    </data>
    <data timestep="42.00">
        <lanes/>
    </data>
    <data timestep="43.00">
        <lanes>
            <lane id="51o_0" queueing_time="0.00" queueing_length="0.00" queueing_length_experimental="9.90"/>
        </lanes>
    </data>
    <data timestep="44.00">
        <lanes>
            <lane id="51o_0" queueing_time="0.00" queueing_length="0.00" queueing_length_experimental="9.58"/>
        </lanes>
    </data>
    <data timestep="45.00">
        <lanes>
            <lane id="51o_0" queueing_time="0.00" queueing_length="0.00" queueing_length_experimental="8.59"/>
            <lane id="52o_0" queueing_time="0.00" queueing_length="0.00" queueing_length_experimental="9.90"/>
        </lanes>
    </data>
    <data timestep="46.00">
        <lanes>
            <lane id="51o_0" queueing_time="0.00" queueing_length="0.00" queueing_length_experimental="7.24"/>
            <lane id="52o_0" queueing_time="0.00" queueing_length="0.00" queueing_length_experimental="9.38"/>
        </lanes>
    </data>
    <data timestep="47.00">
        <lanes>
            <lane id="51o_0" queueing_time="0.00" queueing_length="0.00" queueing_length_experimental="9.90"/>
            <lane id="52o_0" queueing_time="0.00" queueing_length="0.00" queueing_length_experimental="8.48"/>
        </lanes>
    </data>
    <data timestep="48.00">
        <lanes>
            <lane id="51o_0" queueing_time="0.00" queueing_length="0.00" queueing_length_experimental="9.73"/>
        </lanes>
    </data>
    <data timestep="49.00">
        <lanes>
            <lane id="51o_0" queueing_time="0.00" queueing_length="0.00" queueing_length_experimental="9.27"/>
        </lanes>
    </data>
    <data timestep="50.00">
        <lanes>
            <lane id="51o_0" queueing_time="0.00" queueing_length="0.00" queueing_length_experimental="8.30"/>
        </lanes>
    </data>
    <data timestep="51.00">
        <lanes>
            <lane id="51o_0" queueing_time="0.00" queueing_length="0.00" queueing_length_experimental="7.03"/>
        </lanes>
    </data>
    <data timestep="52.00">
        <lanes>
            <lane id="51o_0" queueing_time="0.00" queueing_length="0.00" queueing_length_experimental="9.90"/>
        </lanes>
    </data>
    <data timestep="53.00">
        <lanes>
            <lane id="3i_1" queueing_time="0.00" queueing_length="0.00" queueing_length_experimental="4.12"/>
            <lane id="51o_0" queueing_time="0.00" queueing_length="0.00" queueing_length_experimental="9.71"/>
        </lanes>
    </data>
    <data timestep="54.00">
        <lanes>
            <lane id="3i_1" queueing_time="0.00" queueing_length="0.00" queueing_length_experimental="4.01"/>
            <lane id="51o_0" queueing_time="0.00" queueing_length="0.00" queueing_length_experimental="8.94"/>
        </lanes>
    </data>
    <data timestep="55.00">
        <lanes>
            <lane id="3i_1" queueing_time="1.00" queueing_length="4.00" queueing_length_experimental="4.00"/>
            <lane id="51o_0" queueing_time="0.00" queueing_length="0.00" queueing_length_experimental="7.99"/>
        </lanes>
    </data>
    <data timestep="56.00">
        <lanes>
            <lane id="3i_1" queueing_time="2.00" queueing_length="4.00" queueing_length_experimental="4.00"/>
            <lane id="51o_0" queueing_time="0.00" queueing_length="0.00" queueing_length_experimental="6.88"/>
        </lanes>
    </data>
    <data timestep="57.00">
        <lanes>
            <lane id="3i_1" queueing_time="3.00" queueing_length="4.00" queueing_length_experimental="4.00"/>
            <lane id="51o_0" queueing_time="0.00" queueing_length="0.00" queueing_length_experimental="9.90"/>
        </lanes>
    </data>
    <data timestep="58.00">
        <lanes>
            <lane id="3i_1" queueing_time="4.00" queueing_length="4.00" queueing_length_experimental="4.00"/>
            <lane id="51o_0" queueing_time="0.00" queueing_length="0.00" queueing_length_experimental="9.56"/>
        </lanes>
    </data>
    <data timestep="59.00">
        <lanes>
            <lane id="3i_1" queueing_time="5.00" queueing_length="4.00" queueing_length_experimental="4.00"/>
            <lane id="51o_0" queueing_time="0.00" queueing_length="0.00" queueing_length_experimental="8.57"/>
        </lanes>
    </data>
    <data timestep="60.00">
        <lanes>
            <lane id="3i_1" queueing_time="6.00" queueing_length="4.00" queueing_length_experimental="4.00"/>
        </lanes>
    </data>
    <data timestep="61.00">
        <lanes>
            <lane id="3i_1" queueing_time="7.00" queueing_length="4.00" queueing_length_experimental="4.00"/>
            <lane id="51o_0" queueing_time="0.00" queueing_length="0.00" queueing_length_experimental="9.90"/>
        </lanes>
    </data>
    <data timestep="62.00">
        <lanes>
            <lane id="3i_1" queueing_time="8.00" queueing_length="4.00" queueing_length_experimental="4.00"/>
            <lane id="51o_0" queueing_time="0.00" queueing_length="0.00" queueing_length_experimental="9.18"/>
        </lanes>
    </data>
    <data timestep="63.00">
        <lanes>
            <lane id="3i_1" queueing_time="9.00" queueing_length="4.00" queueing_length_experimental="4.00"/>
        </lanes>
    </data>
    <data timestep="64.00">
        <lanes>
            <lane id="3i_1" queueing_time="10.00" queueing_length="4.00" queueing_length_experimental="4.00"/>
        </lanes>
    </data>
    <data timestep="65.00">
        <lanes>
            <lane id="1i_1" queueing_time="0.00" queueing_length="0.00" queueing_length_experimental="4.70"/>
            <lane id="3i_1" queueing_time="11.00" queueing_length="4.00" queueing_length_experimental="4.00"/>
            <lane id="51o_0" queueing_time="0.00" queueing_length="0.00" queueing_length_experimental="9.90"/>
        </lanes>
    </data>
    <data timestep="66.00">
        <lanes>
            <lane id="1i_1" queueing_time="0.00" queueing_length="0.00" queueing_length_experimental="4.27"/>
            <lane id="3i_1" queueing_time="12.00" queueing_length="4.00" queueing_length_experimental="4.00"/>
            <lane id="51o_0" queueing_time="0.00" queueing_length="0.00" queueing_length_experimental="9.57"/>
        </lanes>
    </data>
    <data timestep="67.00">
        <lanes>
            <lane id="1i_1" queueing_time="0.00" queueing_length="0.00" queueing_length_experimental="4.07"/>
            <lane id="3i_1" queueing_time="13.00" queueing_length="4.00" queueing_length_experimental="4.00"/>
            <lane id="51o_0" queueing_time="0.00" queueing_length="0.00" queueing_length_experimental="8.45"/>
        </lanes>
    </data>
    <data timestep="68.00">
        <lanes>
            <lane id="1i_1" queueing_time="1.00" queueing_length="4.03" queueing_length_experimental="4.03"/>
            <lane id="3i_1" queueing_time="14.00" queueing_length="4.00" queueing_length_experimental="4.00"/>
        </lanes>
    </data>
    <data timestep="69.00">
        <lanes>
            <lane id="1i_1" queueing_time="2.00" queueing_length="4.02" queueing_length_experimental="4.02"/>
            <lane id="3i_1" queueing_time="15.00" queueing_length="4.00" queueing_length_experimental="4.00"/>
            <lane id="51o_0" queueing_time="0.00" queueing_length="0.00" queueing_length_experimental="9.90"/>
        </lanes>
    </data>
    <data timestep="70.00">
        <lanes>
            <lane id="1i_1" queueing_time="3.00" queueing_length="4.01" queueing_length_experimental="4.01"/>
            <lane id="3i_1" queueing_time="16.00" queueing_length="4.00" queueing_length_experimental="4.00"/>
            <lane id="51o_0" queueing_time="0.00" queueing_length="0.00" queueing_length_experimental="9.49"/>
        </lanes>
    </data>
    <data timestep="71.00">
        <lanes>
            <lane id="1i_1" queueing_time="4.00" queueing_length="4.00" queueing_length_experimental="4.00"/>
            <lane id="3i_1" queueing_time="17.00" queueing_length="4.00" queueing_length_experimental="4.00"/>
            <lane id="4i_0" queueing_time="0.00" queueing_length="0.00" queueing_length_experimental="4.03"/>
            <lane id="51o_0" queueing_time="0.00" queueing_length="0.00" queueing_length_experimental="8.58"/>
        </lanes>
    </data>
    <data timestep="72.00">
        <lanes>
            <lane id="1i_1" queueing_time="5.00" queueing_length="4.00" queueing_length_experimental="4.00"/>
            <lane id="3i_1" queueing_time="18.00" queueing_length="4.00" queueing_length_experimental="4.00"/>
            <lane id="4i_0" queueing_time="1.00" queueing_length="4.02" queueing_length_experimental="4.02"/>
        </lanes>
    </data>
    <data timestep="73.00">
        <lanes>
            <lane id="1i_1" queueing_time="6.00" queueing_length="4.00" queueing_length_experimental="4.00"/>
            <lane id="3i_1" queueing_time="19.00" queueing_length="4.00" queueing_length_experimental="4.00"/>
            <lane id="4i_0" queueing_time="2.00" queueing_length="4.00" queueing_length_experimental="4.00"/>
            <lane id="51o_0" queueing_time="0.00" queueing_length="0.00" queueing_length_experimental="9.90"/>
            <lane id="53o_0" queueing_time="0.00" queueing_length="0.00" queueing_length_experimental="9.90"/>
        </lanes>
    </data>
    <data timestep="74.00">
        <lanes>
            <lane id="1i_1" queueing_time="7.00" queueing_length="4.00" queueing_length_experimental="4.00"/>
            <lane id="3i_1" queueing_time="20.00" queueing_length="4.00" queueing_length_experimental="4.00"/>
            <lane id="4i_0" queueing_time="3.00" queueing_length="4.00" queueing_length_experimental="4.00"/>
            <lane id="51o_0" queueing_time="0.00" queueing_length="0.00" queueing_length_experimental="9.59"/>
            <lane id="53o_0" queueing_time="1.00" queueing_length="9.82" queueing_length_experimental="9.82"/>
        </lanes>
    </data>
    <data timestep="75.00">
        <lanes>
            <lane id="1i_1" queueing_time="8.00" queueing_length="4.00" queueing_length_experimental="4.00"/>
            <lane id="3i_1" queueing_time="21.00" queueing_length="4.00" queueing_length_experimental="4.00"/>
            <lane id="4i_0" queueing_time="4.00" queueing_length="4.00" queueing_length_experimental="4.00"/>
            <lane id="4i_1" queueing_time="1.00" queueing_length="4.01" queueing_length_experimental="4.01"/>
            <lane id="51o_0" queueing_time="0.00" queueing_length="0.00" queueing_length_experimental="8.90"/>
            <lane id="53o_0" queueing_time="0.00" queueing_length="0.00" queueing_length_experimental="9.08"/>
        </lanes>
    </data>
    <data timestep="76.00">
        <lanes>
            <lane id="1i_1" queueing_time="9.00" queueing_length="4.00" queueing_length_experimental="4.00"/>
            <lane id="3i_1" queueing_time="22.00" queueing_length="4.00" queueing_length_experimental="8.01"/>
            <lane id="4i_0" queueing_time="5.00" queueing_length="4.00" queueing_length_experimental="4.00"/>
            <lane id="4i_1" queueing_time="2.00" queueing_length="4.00" queueing_length_experimental="4.00"/>
            <lane id="51o_0" queueing_time="0.00" queueing_length="0.00" queueing_length_experimental="7.79"/>
            <lane id="53o_0" queueing_time="0.00" queueing_length="0.00" queueing_length_experimental="7.78"/>
        </lanes>
    </data>
    <data timestep="77.00">
        <lanes>
            <lane id="1i_1" queueing_time="10.00" queueing_length="4.00" queueing_length_experimental="4.00"/>
            <lane id="3i_1" queueing_time="23.00" queueing_length="8.01" queueing_length_experimental="8.01"/>
            <lane id="4i_0" queueing_time="6.00" queueing_length="4.00" queueing_length_experimental="4.00"/>
            <lane id="4i_1" queueing_time="3.00" queueing_length="4.00" queueing_length_experimental="4.00"/>
        </lanes>
    </data>
    <data timestep="78.00">
        <lanes>
            <lane id="1i_1" queueing_time="11.00" queueing_length="4.00" queueing_length_experimental="4.00"/>
            <lane id="3i_1" queueing_time="24.00" queueing_length="8.01" queueing_length_experimental="8.01"/>
            <lane id="4i_0" queueing_time="7.00" queueing_length="4.00" queueing_length_experimental="4.00"/>
            <lane id="4i_1" queueing_time="4.00" queueing_length="4.00" queueing_length_experimental="4.00"/>
            <lane id="51o_0" queueing_time="0.00" queueing_length="0.00" queueing_length_experimental="9.90"/>
        </lanes>
    </data>
    <data timestep="79.00">
        <lanes>
            <lane id="1i_1" queueing_time="12.00" queueing_length="4.00" queueing_length_experimental="4.00"/>
            <lane id="3i_1" queueing_time="25.00" queueing_length="8.01" queueing_length_experimental="8.01"/>
            <lane id="4i_0" queueing_time="8.00" queueing_length="4.00" queueing_length_experimental="4.00"/>
            <lane id="4i_1" queueing_time="5.00" queueing_length="4.00" queueing_length_experimental="4.00"/>
            <lane id="51o_0" queueing_time="0.00" queueing_length="0.00" queueing_length_experimental="9.72"/>
        </lanes>
    </data>
    <data timestep="80.00">
        <lanes>
            <lane id="1i_1" queueing_time="13.00" queueing_length="4.00" queueing_length_experimental="8.08"/>
            <lane id="3i_1" queueing_time="26.00" queueing_length="8.01" queueing_length_experimental="8.01"/>
            <lane id="4i_0" queueing_time="9.00" queueing_length="4.00" queueing_length_experimental="4.00"/>
            <lane id="4i_1" queueing_time="6.00" queueing_length="4.00" queueing_length_experimental="4.00"/>
            <lane id="51o_0" queueing_time="0.00" queueing_length="0.00" queueing_length_experimental="9.10"/>
        </lanes>
    </data>
    <data timestep="81.00">
        <lanes>
            <lane id="1i_1" queueing_time="1.00" queueing_length="8.04" queueing_length_experimental="8.04"/>
            <lane id="2i_0" queueing_time="0.00" queueing_length="0.00" queueing_length_experimental="3.00"/>
            <lane id="3i_1" queueing_time="27.00" queueing_length="8.00" queueing_length_experimental="8.00"/>
            <lane id="4i_0" queueing_time="10.00" queueing_length="4.00" queueing_length_experimental="4.00"/>
            <lane id="4i_1" queueing_time="7.00" queueing_length="4.00" queueing_length_experimental="4.00"/>
            <lane id="51o_0" queueing_time="0.00" queueing_length="0.00" queueing_length_experimental="8.18"/>
        </lanes>
    </data>
    <data timestep="82.00">
        <lanes>
            <lane id="1i_1" queueing_time="0.00" queueing_length="0.00" queueing_length_experimental="7.60"/>
            <lane id="2i_0" queueing_time="1.00" queueing_length="3.00" queueing_length_experimental="3.00"/>
            <lane id="3i_1" queueing_time="28.00" queueing_length="8.00" queueing_length_experimental="8.00"/>
            <lane id="4i_0" queueing_time="11.00" queueing_length="8.25" queueing_length_experimental="8.25"/>
            <lane id="4i_1" queueing_time="8.00" queueing_length="4.00" queueing_length_experimental="4.00"/>
        </lanes>
    </data>
    <data timestep="83.00">
        <lanes>
            <lane id="1i_1" queueing_time="0.00" queueing_length="0.00" queueing_length_experimental="7.02"/>
            <lane id="2i_0" queueing_time="2.00" queueing_length="3.00" queueing_length_experimental="3.00"/>
            <lane id="3i_1" queueing_time="29.00" queueing_length="8.00" queueing_length_experimental="8.00"/>
            <lane id="4i_0" queueing_time="12.00" queueing_length="8.16" queueing_length_experimental="8.16"/>
            <lane id="4i_1" queueing_time="9.00" queueing_length="4.00" queueing_length_experimental="4.00"/>
            <lane id="51o_0" queueing_time="0.00" queueing_length="0.00" queueing_length_experimental="9.90"/>
            <lane id="52o_0" queueing_time="0.00" queueing_length="0.00" queueing_length_experimental="9.90"/>
        </lanes>
    </data>
    <data timestep="84.00">
        <lanes>
            <lane id="1i_1" queueing_time="0.00" queueing_length="0.00" queueing_length_experimental="5.85"/>
            <lane id="2i_0" queueing_time="3.00" queueing_length="3.00" queueing_length_experimental="3.00"/>
            <lane id="3i_1" queueing_time="30.00" queueing_length="8.00" queueing_length_experimental="8.00"/>
            <lane id="4i_0" queueing_time="13.00" queueing_length="4.00" queueing_length_experimental="8.00"/>
            <lane id="4i_1" queueing_time="10.00" queueing_length="4.00" queueing_length_experimental="4.00"/>
            <lane id="51o_0" queueing_time="0.00" queueing_length="0.00" queueing_length_experimental="9.22"/>
            <lane id="52o_0" queueing_time="0.00" queueing_length="0.00" queueing_length_experimental="9.22"/>
        </lanes>
    </data>
    <data timestep="85.00">
        <lanes>
            <lane id="2i_0" queueing_time="4.00" queueing_length="3.00" queueing_length_experimental="3.00"/>
            <lane id="3i_1" queueing_time="31.00" queueing_length="8.00" queueing_length_experimental="8.00"/>
            <lane id="4i_0" queueing_time="14.00" queueing_length="8.00" queueing_length_experimental="8.00"/>
            <lane id="4i_1" queueing_time="11.00" queueing_length="4.00" queueing_length_experimental="4.00"/>
            <lane id="52o_0" queueing_time="0.00" queueing_length="0.00" queueing_length_experimental="8.43"/>
        </lanes>
    </data>
    <data timestep="86.00">
        <lanes>
            <lane id="2i_0" queueing_time="5.00" queueing_length="3.00" queueing_length_experimental="3.00"/>
            <lane id="3i_1" queueing_time="32.00" queueing_length="8.00" queueing_length_experimental="8.00"/>
            <lane id="4i_0" queueing_time="15.00" queueing_length="8.00" queueing_length_experimental="8.00"/>
            <lane id="4i_1" queueing_time="12.00" queueing_length="4.00" queueing_length_experimental="4.00"/>
            <lane id="52o_0" queueing_time="0.00" queueing_length="0.00" queueing_length_experimental="7.21"/>
        </lanes>
    </data>
    <data timestep="87.00">
        <lanes>
            <lane id="2i_0" queueing_time="6.00" queueing_length="3.00" queueing_length_experimental="3.00"/>
            <lane id="2i_1" queueing_time="0.00" queueing_length="0.00" queueing_length_experimental="4.23"/>
            <lane id="3i_1" queueing_time="33.00" queueing_length="8.00" queueing_length_experimental="8.00"/>
            <lane id="4i_0" queueing_time="16.00" queueing_length="8.00" queueing_length_experimental="8.00"/>
            <lane id="4i_1" queueing_time="13.00" queueing_length="4.00" queueing_length_experimental="4.00"/>
            <lane id="51o_0" queueing_time="0.00" queueing_length="0.00" queueing_length_experimental="9.90"/>
        </lanes>
    </data>
    <data timestep="88.00">
        <lanes>