<?xml version="1.0" encoding="UTF-8"?>

<!-- generated on 03-04-2017 15:45:24 by SUMO gui Version 0.29.0
<?xml version="1.0" encoding="UTF-8"?>

<configuration xmlns:xsi="http://www.w3.org/2001/XMLSchema-instance" xsi:noNamespaceSchemaLocation="http://sumo.dlr.de/xsd/sumo-gui.exeConfiguration.xsd">

    <input>
        <net-file value="data/cross.net.xml"/>
        <route-files value="data/cross.rou.xml"/>
        <additional-files value="data/cross.add.xml"/>
    </input>

    <output>
        <queue-output value="queue.xml"/>
        <tripinfo-output value="tripinfo.xml"/>
    </output>

    <time>
        <begin value="0"/>
    </time>

    <report>
        <verbose value="true"/>
        <duration-log.statistics value="true"/>
        <no-step-log value="true"/>
    </report>

    <traci_server>
        <remote-port value="53622"/>
    </traci_server>

</configuration>
-->

<tripinfos xmlns:xsi="http://www.w3.org/2001/XMLSchema-instance" xsi:noNamespaceSchemaLocation="http://sumo.dlr.de/xsd/tripinfo_file.xsd">
    <tripinfo id="right_up_0" depart="0.00" departLane="51o_0" departPos="7.10" departSpeed="0.00" departDelay="0.00" arrival="91.00" arrivalLane="54i_0" arrivalPos="10.00" arrivalSpeed="11.48" duration="91.00" routeLength="1002.00" waitSteps="0" timeLoss="20.57" rerouteNo="0" devices="tripinfo_right_up_0" vType="typeB" speedFactor="1.00" vaporized=""/>
    <tripinfo id="right_3" depart="8.00" departLane="51o_0" departPos="3.10" departSpeed="0.00" departDelay="6.00" arrival="109.00" arrivalLane="52i_1" arrivalPos="10.00" arrivalSpeed="10.92" duration="101.00" routeLength="1017.10" waitSteps="0" timeLoss="21.62" rerouteNo="0" devices="tripinfo_right_3" vType="typeC" speedFactor="1.00" vaporized=""/>
    <tripinfo id="right_2" depart="4.00" departLane="51o_0" departPos="3.10" departSpeed="0.00" departDelay="3.00" arrival="110.00" arrivalLane="52i_0" arrivalPos="10.00" arrivalSpeed="11.41" duration="106.00" routeLength="1017.10" waitSteps="0" timeLoss="25.90" rerouteNo="0" devices="tripinfo_right_2" vType="typeC" speedFactor="1.00" vaporized=""/>
    <tripinfo id="right_up_5" depart="18.00" departLane="51o_0" departPos="3.10" departSpeed="0.00" departDelay="10.00" arrival="121.00" arrivalLane="54i_0" arrivalPos="10.00" arrivalSpeed="11.16" duration="103.00" routeLength="1006.00" waitSteps="0" timeLoss="24.22" rerouteNo="0" devices="tripinfo_right_up_5" vType="typeC" speedFactor="1.00" vaporized=""/>
    <tripinfo id="right_up_6" depart="22.00" departLane="51o_0" departPos="3.10" departSpeed="0.00" departDelay="8.00" arrival="126.00" arrivalLane="54i_0" arrivalPos="10.00" arrivalSpeed="11.01" duration="104.00" routeLength="1006.00" waitSteps="0" timeLoss="24.91" rerouteNo="0" devices="tripinfo_right_up_6" vType="typeC" speedFactor="1.00" vaporized=""/>
    <tripinfo id="up_left_15" depart="34.00" departLane="53o_0" departPos="3.10" departSpeed="0.00" departDelay="0.00" arrival="131.00" arrivalLane="51i_0" arrivalPos="10.00" arrivalSpeed="11.38" duration="97.00" routeLength="1006.00" waitSteps="0" timeLoss="18.23" rerouteNo="0" devices="tripinfo_up_left_15" vType="typeC" speedFactor="1.00" vaporized=""/>
    <tripinfo id="right_14" depart="32.00" departLane="51o_0" departPos="3.10" departSpeed="0.00" departDelay="0.00" arrival="132.00" arrivalLane="52i_0" arrivalPos="10.00" arrivalSpeed="11.63" duration="100.00" routeLength="1017.10" waitSteps="0" timeLoss="19.97" rerouteNo="0" devices="tripinfo_right_14" vType="typeC" speedFactor="1.00" vaporized=""/>
    <tripinfo id="right_up_16" depart="37.00" departLane="51o_0" departPos="3.10" departSpeed="0.00" departDelay="2.00" arrival="135.00" arrivalLane="54i_0" arrivalPos="10.00" arrivalSpeed="11.23" duration="98.00" routeLength="1006.00" waitSteps="0" timeLoss="18.95" rerouteNo="0" devices="tripinfo_right_up_16" vType="typeC" speedFactor="1.00" vaporized=""/>
    <tripinfo id="right_down_4" depart="13.00" departLane="51o_0" departPos="3.10" departSpeed="0.00" departDelay="9.00" arrival="140.00" arrivalLane="53i_0" arrivalPos="10.00" arrivalSpeed="11.44" duration="127.00" routeLength="1007.41" waitSteps="14" timeLoss="46.89" rerouteNo="0" devices="tripinfo_right_down_4" vType="typeC" speedFactor="1.00" vaporized=""/>
    <tripinfo id="right_down_8" depart="27.00" departLane="51o_0" departPos="3.10" departSpeed="0.00" departDelay="7.00" arrival="142.00" arrivalLane="53i_0" arrivalPos="10.00" arrivalSpeed="11.72" duration="115.00" routeLength="1007.41" waitSteps="1" timeLoss="35.15" rerouteNo="0" devices="tripinfo_right_down_8" vType="typeC" speedFactor="1.00" vaporized=""/>
    <tripinfo id="right_down_17" depart="43.00" departLane="51o_0" departPos="7.10" departSpeed="0.00" departDelay="6.00" arrival="143.00" arrivalLane="53i_1" arrivalPos="10.00" arrivalSpeed="11.31" duration="100.00" routeLength="1003.41" waitSteps="0" timeLoss="28.79" rerouteNo="0" devices="tripinfo_right_down_17" vType="typeB" speedFactor="1.00" vaporized=""/>
    <tri