<?xml version="1.0" encoding="UTF-8"?>

<!-- generated on Tuesday 04 April 2017 06:18:37 PM IST by SUMO gui Version 0.28.0
<?xml version="1.0" encoding="UTF-8"?>

<configuration xmlns:xsi="http://www.w3.org/2001/XMLSchema-instance" xsi:noNamespaceSchemaLocation="http://sumo.dlr.de/xsd/sumo-gui.exeConfiguration.xsd">

    <input>
        <net-file value="data/cross.net.xml"/>
        <route-files value="data/cross.rou.xml"/>
        <additional-files value="data/cross.add.xml"/>
    </input>

    <output>
        <queue-output value="queue.xml"/>
        <tripinfo-output value="tripinfo.xml"/>
    </output>

    <time>
        <begin value="0"/>
    </time>

    <report>
        <verbose value="true"/>
        <duration-log.statistics value="true"/>
        <no-step-log value="true"/>
    </report>

    <traci_server>
        <remote-port value="44781"/>
    </traci_server>

</configuration>
-->

<tripinfos xmlns:xsi="http://www.w3.org/2001/XMLSchema-instance" xsi:noNamespaceSchemaLocation="http://sumo.dlr.de/xsd/tripinfo_file.xsd">
    <tripinfo id="right_up_0" depart="0.00" departLane="51o_0" departPos="7.10" departSpeed="0.00" departDelay="0.00" arrival="91.00" arrivalLane="54i_0" arrivalPos="10.00" arrivalSpeed="11.55" duration="91.00" routeLength="1002.00" waitSteps="0" timeLoss="20.68" rerouteNo="0" devices="tripinfo_right_up_0" vType="typeB" vaporized=""/>
    <tripinfo id="down_7" depart="19.00" departLane="54o_0" departPos="3.10" departSpeed="0.00" departDelay="0.00" arrival="117.00" arrivalLane="53i_0" arrivalPos="10.00" arrivalSpeed="11.24" duration="98.00" routeLength="1017.10" waitSteps="0" timeLoss="17.88" rerouteNo="0" devices="tripinfo_down_7" vType="typeC" vaporized=""/>
    <tripinfo id="down_9" depart="23.00" departLane="54o_0" departPos="3.10" departSpeed="0.00" departDelay="2.00" arrival="121.00" arrivalLane="53i_0" arrivalPos="10.00" arrivalSpeed="11.59" duration="98.00" routeLength="1017.10" waitSteps="0" timeLoss="18.47" rerouteNo="0" devices="tripinfo_down_9" vType="typeC" vaporized=""/>
    <tripinfo id="down_left_11" depart="28.00" departLane="54o_0" departPos="3.10" departSpeed="0.00" departDelay="0.00" arrival="129.00" arrivalLane="53i_0" arrivalPos="10.00" arrivalSpeed="11.08" duration="101.00" routeLength="1017.10" waitSteps="0" timeLoss="20.94" rerouteNo="0" devices="tripinfo_down_left_11" vType="typeC" vaporized=""/>
    <tripinfo id="up_left_15" depart="34.00" departLane="53o_0" departPos="3.10" departSpeed="0.00" departDelay="0.00" arrival="133.00" arrivalLane="51i_0" arrivalPos="10.00" arrivalSpeed="11.78" duration="99.00" routeLength="1006.00" waitSteps="0" timeLoss="19.61" rerouteNo="0" devices="tripinfo_up_left_15" vType="typeC" vaporized=""/>
    <tripinfo id="up_right_1" depart="1.00" departLane="53o_0" departPos="3.10" departSpeed="0.00" departDelay="0.00" arrival="160.00" arrivalLane="52i_0" arrivalPos="10.00" arrivalSpeed="11.07" duration="159.00" routeLength="1007.41" waitSteps="46" timeLoss="79.61" rerouteNo="0" devices="tripinfo_up_right_1" vType="typeC" vaporized=""/>
    <tripinfo id="up_right_10" depart="26.00" departLane="53o_0" departPos="3.10" departSpeed="0.00" departDelay="0.00" arrival="163.00" arrivalLane="52i_0" arrivalPos="10.00" arrivalSpeed="11.82" duration="137.00" routeLength="1007.41" waitSteps="26" timeLoss="56.78" rerouteNo="0" devices="tripinfo_up_right_10" vType="typeC" vaporized=""/>
    <tripinfo id="up_right_29" depart="73.00" departLane="53o_0" departPos="3.10" departSpeed="0.00" departDelay="0.00" arrival="170.00" arrivalLane="52i_0" arrivalPos="10.00" arrivalSpeed="11.76" duration="97.00" routeLength="1007.41" waitSteps="0" timeLoss="17.06" rerouteNo="0" devices="tripinfo_up_right_29" vType="typeC" vaporized=""/>
    <tripinfo id="up_right_43" depart="131.00" departLane="53o_0" departPos="3.10" departSpeed="0.00" departDelay="0.00" arrival="227.00" arrivalLane="52i_0" arrivalPos="10.00" arrivalSpeed="11.63" duration="96.00" routeLength="1007.41" waitSteps="0" timeLoss="15.84" rerouteNo="0" devices="tripinfo_up_right_43" vType="typeC" vaporized=""/>
    <tripinfo id="up_45" depart="141.00" departLane="53o_0" departPos="3.10" departSpeed="0.00" departDelay="0.00" arrival="239.00" arrivalLane="54i_0" arrivalPos="10.00" arrivalSpeed="10.92" duration="98.00" routeLength="1017.10" waitSteps="0" timeLoss="17.77" rerouteNo="0" devices="tripinfo_up_45" vType="typeC" vaporized=""/>
    <tripinfo id="left_up_13" depart="33.00" departLane="52o_0" departPos="3.10" departSpeed="0.00" departDelay="3.00" arrival="260.00" arrivalLane="54i_0" arrivalPos="10.00" arrivalSpeed="10.83" duration="227.00" routeLength="1007.41" waitSteps="113" timeLoss="147.01" rerouteNo="0" devices="tripinfo_left_up_13" vType="typeC" vaporized=""/>
    <tripinfo id="left_12" depart="29.00" departLane="52o_0" departPos="3.10" departSpeed="0.00" departDelay="0.00" arrival="262.00" arrivalLane="51i_0" arrivalPos="10.00" arrivalSpeed="11.15" duration="233.00" routeLength="1017.10" waitSteps="118" timeLoss="152.77" rerouteNo="0" devices="tripinfo_left_12" vType="typeC" vaporized=""/>
    <tripinfo id="left_up_21" depart="45.00" departLane="52o_0" departPos="3.10" departSpeed="0.00" departDelay="0.00" arrival="263.00" arrivalLane="54i_0" arrivalPos="10.00" arrivalSpeed="11.31" duration="218.00" routeLength="1007.41" waitSteps="103" timeLoss="138.60" rerouteNo="0" devices="tripinfo_left_up_21" vType="typeC" vaporized=""/>
    <tripinfo id="left_36" depart="98.00" departLane="52o_0" departPos="3.10" departSpeed="0.00" departDelay="0.00" arrival="263.00" arrivalLane="51i_0" arrivalPos="10.00" arrivalSpeed="11.36" duration="165.00" routeLength="1017.10" waitSteps="49" timeLoss="85.24" rerouteNo="0" devices="tripinfo_left_36" vType="typeC" vaporized=""/>
    <tripinfo id="left_55" depart="166.00" departLane="52o_0" departPos="3.10" departSpeed="0.00" departDelay="0.00" arrival="265.00" arrivalLane="51i_0" arrivalPos="10.00" arrivalSpeed="11.48" duration="99.00" routeLength="1017.10" waitSteps="0" timeLoss="19.21" rerouteNo="0" devices="tripinfo_left_55" vType="typeC" vaporized=""/>
    <tripinfo id="left_up_34" depart="83.00" departLane="52o_0" departPos="3.10" departSpeed="0.00" departDelay="0.00" arrival="266.00" arrivalLane="54i_0" arrivalPos="10.00" arrivalSpeed="10.81" duration="183.00" routeLength="1007.41" waitSteps="69" timeLoss="102.97" rerouteNo="0" devices="tripinfo_left_up_34" vType="typeC" vaporized=""/>
    <tripinfo id="left_down_47" depart="146.00" departLane="52o_0" departPos="3.10" departSpeed="0.00" departDelay="0.00" arrival="267.00" arrivalLane="53i_0" arrivalPos="10.00" arrivalSpeed="11.40" duration="121.00" routeLength="1006.00" waitSteps="7" timeLoss="41.99" rerouteNo="0" devices="tripinfo_left_down_47" vType="typeC" vaporized=""/>
    <tripinfo id="left_up_37" depart="103.00" departLane="52o_0" departPos="3.10" departSpeed="0.00" departDelay="4.00" arrival="268.00" arrivalLane="54i_0" arrivalPos="10.00" arrivalSpeed="11.70" duration="165.00" routeLength="1007.41" waitSteps="47" timeLoss="85.22" rerouteNo="0" devices="tripinfo_left_up_37" vType="typeC" vaporized=""/>
    <tripinfo id="left_down_49" depart="153.00" departLane="52o_0" departPos="7.10" departSpeed="0.00" departDelay="2.00" arrival="268.00" arrivalLane="53i_1" arrivalPos="10.00" arrivalSpeed="11.27" duration="115.00" routeLength="1002.00" waitSteps="6" timeLoss="44.50" rerouteNo="0" devices="tripinfo_left_down_49" vType="typeB" vaporized=""/>
    <tripinfo id="left_up_57" depart="173.00" departLane="52o_0" departPos="3.10" departSpeed="0.00" departDelay="0.00" arrival="269.00" arrivalLane="54i_1" arrivalPos="10.00" arrivalSpeed="10.76" duration="96.00" routeLength="1007.41" waitSteps="0" timeLoss="16.47" rerouteNo="0" devices="tripinfo_left_up_57" vType="typeC" vaporized=""/>
    <tripinfo id="left_64" depart="196.00" departLane="52o_0" departPos="3.10" departSpeed="0.00" departDelay="0.00" arrival="294.00" arrivalLane="51i_0" arrivalPos="10.00" arrivalSpeed="11.11" duration="98.00" routeLength="1017.10" waitSteps="0" timeLoss="18.16" rerouteNo="0" devices="tripinfo_left_64" vType="typeC" vaporized=""/>
    <tripinfo id="left_up_73" depart="229.00" departLane="52o_0" departPos="3.10" departSpeed="0.00" departDelay="0.00" arrival="325.00" arrivalLane="54i_0" arrivalPos="10.00" arrivalSpeed="11.62" duration="96.00" routeLength="1007.41" waitSteps="0" timeLoss="16.38" rerouteNo="0" devices="tripinfo_left_up_73" vType="typeC" vaporized=""/>
    <tripinfo id="left_78" depart="247.00" departLane="52o_0" departPos="3.10" departSpeed="0.00" departDelay="0.00" arrival="347.00" arrivalLane="51i_0" arrivalPos="10.00" arrivalSpeed="11.33" duration="100.00" routeLength="1017.10" waitSteps="0" timeLoss="20.32" rerouteNo="0" devices="tripinfo_left_78" vType="typeC" vaporized=""/>
    <tripinfo id="left_80" depart="252.00" departLane="52o_0" departPos="3.10" departSpeed="0.00" departDelay="1.00" arrival="353.00" arrivalLane="51i_0" arrivalPos="10.00" arrivalSpeed="11.44" duration="101.00" routeLength="1017.10" waitSteps="0" timeLoss="20.98" rerouteNo="0" devices="tripinfo_left_80" vType="typeC" vaporized=""/>
    <tripinfo id="right_up_5" depart="18.00" departLane="51o_0" departPos="3.10" departSpeed="0.00" departDelay="10.00" arrival="359.00" arrivalLane="54i_0" arrivalPos="10.00" arrivalSpeed="11.58" duration="341.00" routeLength="1006.00" waitSteps="232" timeLoss="262.01" rerouteNo="0" devices="tripinfo_right_up_5" vType="typeC" vaporized=""/>
    <tripinfo id="right_3" depart="8.00" departLane="51o_0" departPos="3.10" departSpeed="0.00" departDelay="6.00" arrival="359.00" arrivalLane="52i_0" arrivalPos="10.00" arrivalSpeed="11.26" duration="351.00" routeLength="1017.10" waitSteps="238" timeLoss="270.83" rerouteNo="0" devices="tripinfo_right_3" vType="typeC" vaporized=""/>
    <tripinfo id="right_2" depart="4.00" departLane="51o_0" departPos="3.10" departSpeed="0.00" departDelay="3.00" arrival="361.00" arrivalLane="52i_0" arrivalPos="10.00" arrivalSpeed="11.19" duration="357.00" routeLength="1017.10" waitSteps="246" timeLoss="277.30" rerouteNo="0" devices="tripinfo_right_2" vType="typeC" vaporized=""/>
    <tripinfo id="right_up_6" depart="22.00" departLane="51o_0" departPos="3.10" departSpeed="0.00" departDelay="8.00" arrival="362.00" arrivalLane="54i_0" arrivalPos="10.00" arrivalSpeed="10.97" duration="340.00" routeLength="1006.00" waitSteps="227" timeLoss="261.14" rerouteNo="0" devices="tripinfo_right_up_6" vType="typeC" vaporized=""/>
    <tripinfo id="right_up_16" depart="37.00" departLane="51o_0" departPos="3.10" departSpeed="0.00" departDelay="2.00" arrival="365.00" arrivalLane="54i_0" arrivalPos="10.00" arrivalSpeed="11.02" duration="328.00" routeLength="1006.00" waitSteps="216" timeLoss="249.20" rerouteNo="0" devices="tripinfo_right_up_16" vType="typeC" vaporized=""/>
    <tripinfo id="right_14" depart="32.00" departLane="51o_0" departPos="3.10" departSpeed="0.00" departDelay="0.00" arrival="367.00" arrivalLane="52i_0" arrivalPos="10.00" arrivalSpeed="11.08" duration="335.00" routeLength="1017.10" waitSteps="217" timeLoss="255.54" rerouteNo="0" devices="tripinfo_right_14" vType="typeC" vaporized=""/>
    <tripinfo id="right_up_18" depart="47.00" departLane="51o_0" departPos="3.10" departSpeed="0.00" departDelay="9.00" arrival="369.00" arrivalLane="54i_0" arrivalPos="10.00" arrivalSpeed="11.48" duration="322.00" routeLength="1006.00" waitSteps="207" timeLoss="243.29" rerouteNo="0" devices="tripinfo_right_up_18" vType="typeC" vaporized=""/>
    <tripinfo id="left_down_82" depart="266.00" departLane="52o_0" departPos="3.10" departSpeed="0.00" departDelay="1.00" arrival="370.00" arrivalLane="53i_0" arrivalPos="10.00" arrivalSpeed="11.46" duration="104.00" routeLength="1006.00" waitSteps="0" timeLoss="25.31" rerouteNo="0" devices="tripinfo_left_down_82" vType="typeC" vaporized=""/>
    <tripinfo id="right_20" depart="56.00" departLane="51o_0" departPos="3.10" departSpeed="0.00" departDelay="14.00" arrival="373.00" arrivalLane="52i_0" arrivalPos="10.00" arrivalSpeed="10.97" duration="317.00" routeLength="1017.10" waitSteps="201" timeLoss="237.13" rerouteNo="0" devices="tripinfo_right_20" vType="typeC" vaporized=""/>
    <tripinfo id="right_23" depart="64.00" departLane="51o_0" departPos="3.10" departSpeed="0.00" departDelay="16.00" arrival="375.00" arrivalLane="52i_0" arrivalPos="10.00" arrivalSpeed="11.65" duration="311.00" routeLength="1017.10" waitSteps="198" timeLoss="230.83" rerouteNo="0" devices="tripinfo_right_23" vType="typeC" vaporized=""/>
    <tripinfo id="right_up_25" depart="74.00" departLane="51o_0" departPos="3.10" departSpeed="0.00" departDelay="14.00" arrival="377.00" arrivalLane="54i_0" arrivalPos="10.00" arrivalSpeed="10.43" duration="303.00" routeLength="1006.00" waitSteps="184" timeLoss="224.21" rerouteNo="0" devices="tripinfo_right_up_25" vType="typeC" vaporized=""/>
    <tripinfo id="right_27" depart="84.00" departLane="51o_0" departPos="3.10" departSpeed="0.00" departDelay="20.00" arrival="380.00" arrivalLane="52i_0" arrivalPos="10.00" arrivalSpeed="10.98" duration="296.00" routeLength="1017.10" waitSteps="179" timeLoss="216.42" rerouteNo="0" devices="tripinfo_right_27" vType="typeC" vaporized=""/>
    <tripinfo id="right_up_30" depart="92.00" departLane="51o_0" departPos="3.10" departSpeed="0.00" departDelay="19.00" arrival="381.00" arrivalLane="54i_0" arrivalPos="10.00" arrivalSpeed="11.01" duration="289.00" routeLength="1006.00" waitSteps="172" timeLoss="210.23" rerouteNo="0" devices="tripinfo_right_up_30" vType="typeC" vaporized=""/>
    <tripinfo id="right_32" depart="102.00" departLane="51o_0" departPos="3.10" departSpeed="0.00" departDelay="27.00" arrival="384.00" arrivalLane="52i_0" arrivalPos="10.00" arrivalSpeed="10.92" duration="282.00" routeLength="1017.10" waitSteps="160" timeLoss="202.17" rerouteNo="0" devices="tripinfo_right_32" vType="typeC" vaporized=""/>
    <tripinfo id="right_up_35" depart="114.00" departLane="51o_0" departPos="5.10" departSpeed="0.00" departDelay="30.00" arrival="386.00" arrivalLane="54i_0" arrivalPos="10.00" arrivalSpeed="11.28" duration="272.00" routeLength="1004.00" waitSteps="160" timeLoss="201.18" rerouteNo="0" devices="tripinfo_right_up_35" vType="typeA" vaporized=""/>
    <tripinfo id="left_down_92" depart="288.00" departLane="52o_0" departPos="3.10" departSpeed="0.00" departDelay="0.00" arrival="387.00" arrivalLane="53i_0" arrivalPos="10.00" arrivalSpeed="11.82" duration="99.00" routeLength="1006.00" waitSteps="0" timeLoss="19.89" rerouteNo="0" devices="tripinfo_left_down_92" vType="typeC" vaporized=""/>
    <tripinfo id="right_up_39" depart="123.00" departLane="51o_0" departPos="3.10" departSpeed="0.00" departDelay="21.00" arrival="389.00" arrivalLane="54i_0" arrivalPos="10.00" arrivalSpeed="10.65" duration="266.00" routeLength="1006.00" waitSteps="147" timeLoss="186.58" rerouteNo="0" devices="tripinfo_right_up_39" vType="typeC" vaporized=""/>
    <tripinfo id="right_46" depart="141.00" departLane="51o_0" departPos="3.10" departSpeed="0.00" departDelay="0.00" arrival="389.00" arrivalLane="52i_0" arrivalPos="10.00" arrivalSpeed="10.91" duration="248.00" routeLength="1017.10" waitSteps="129" timeLoss="168.35" rerouteNo="0" devices="tripinfo_right_46" vType="typeC" vaporized=""/>
    <tripinfo id="right_48" depart="147.00" departLane="51o_0" departPos="3.10" departSpeed="0.00" departDelay="0.00" arrival="391.00" arrivalLane="52i_0" arrivalPos="10.00" arrivalSpeed="11.03" duration="244.00" routeLength="1017.10" waitSteps="127" timeLoss="163.98" rerouteNo="0" devices="tripinfo_right_48" vType="typeC" vaporized=""/>
    <tripinfo id="right_51" depart="158.00" departLane="51o_0" departPos="3.10" departSpeed="0.00" departDelay="5.00" arrival="394.00" arrivalLane="52i_0" arrivalPos="10.00" arrivalSpeed="11.02" duration="236.00" routeLength="1017.10" waitSteps="119" timeLoss="155.81" rerouteNo="0" devices="tripinfo_right_51" vType="typeC" vaporized=""/>
    <tripinfo id="right_52" depart="162.00" departLane="51o_0" departPos="3.10" departSpeed="0.00" departDelay="6.00" arrival="395.00" arrivalLane="52i_0" arrivalPos="10.00" arrivalSpeed="11.06" duration="233.00" routeLength="1017.10" waitSteps="114" timeLoss="153.49" rerouteNo="0" devices="tripinfo_right_52" vType="typeC" vaporized=""/>
    <tripinfo id="right_54" depart="171.00" departLane="51o_0" departPos="3.10" departSpeed="0.00" departDelay="7.00" arrival="397.00" arrivalLane="52i_0" arrivalPos="10.00" arrivalSpeed="11.45" duration="226.00" routeLength="1017.10" waitSteps="110" timeLoss="146.08" rerouteNo="0" devices="tripinfo_right_54" vType="typeC" vaporized=""/>
    <tripinfo id="right_up_59" depart="183.00" departLane="51o_0" departPos="3.10" departSpeed="0.00" departDelay="0.00" arrival="401.00" arrivalLane="54i_0" arrivalPos="10.00" arrivalSpeed="11.32" duration="218.00" routeLength="1006.00" waitSteps="97" timeLoss="139.12" rerouteNo="0" devices="tripinfo_right_up_59" vType="typeC" vaporized=""/>
    <tripinfo id="right_66" depart="201.00" departLane="51o_0" departPos="3.10" departSpeed="0.00" departDelay="1.00" arrival="404.00" arrivalLane="52i_0" arrivalPos="10.00" arrivalSpeed="11.33" duration="203.00" routeLength="1017.10" waitSteps="83" timeLoss="122.98" rerouteNo="0" devices="tripinfo_right_66" vType="typeC" vaporized=""/>
    <tripinfo id="right_68" depart="209.00" departLane="51o_0" departPos="3.10" departSpeed="0.00" departDelay="0.00" arrival="406.00" arrivalLane="52i_0" arrivalPos="10.00" arrivalSpeed="11.18" duration="197.00" routeLength="1017.10" waitSteps="75" timeLoss="117.07" rerouteNo="0" devices="tripinfo_right_68" vType="typeC" vaporized=""/>
    <tripinfo id="left_down_99" depart="307.00" departLane="52o_0" departPos="3.10" departSpeed="0.00" departDelay="0.00" arrival="409.00" arrivalLane="53i_0" arrivalPos="10.00" arrivalSpeed="10.82" duration="102.00" routeLength="1006.00" waitSteps="0" timeLoss="23.25" rerouteNo="0" devices="tripinfo_left_down_99" vType="typeC" vaporized=""/>
    <tripinfo id="left_down_101" depart="311.00" departLane="52o_0" departPos="3.10" departSpeed="0.00" departDelay="0.00" arrival="410.00" arrivalLane="53i_1" arrivalPos="10.00" arrivalSpeed="10.73" duration="99.00" routeLength="1006.00" waitSteps="0" timeLoss="20.20" rerouteNo="0" devices="tripinfo_left_down_101" vType="typeC" vaporized=""/>
    <tripinfo id="right_up_69" depart="217.00" departLane="51o_0" departPos="3.10" departSpeed="0.00" departDelay="0.00" arrival="411.00" arrivalLane="54i_0" arrivalPos="10.00" arrivalSpeed="11.64" duration="194.00" routeLength="1006.00" waitSteps="66" timeLoss="114.80" rerouteNo="0" devices="tripinfo_right_up_69" vType="typeC" vaporized=""/>
    <tripinfo id="right_up_70" depart="224.00" departLane="51o_0" departPos="3.10" departSpeed="0.00" departDelay="0.00" arrival="413.00" arrivalLane="54i_0" arrivalPos="10.00" arrivalSpeed="11.05" duration="189.00" routeLength="1006.00" waitSteps="64" timeLoss="109.61" rerouteNo="0" devices="tripinfo_right_up_70" vType="typeC" vaporized=""/>
    <tripinfo id="right_up_72" depart="233.00" departLane="51o_0" departPos="3.10" departSpeed="0.00" departDelay="6.00" arrival="415.00" arrivalLane="54i_0" arrivalPos="10.00" arrivalSpeed="11.03" duration="182.00" routeLength="1006.00" waitSteps="57" timeLoss="102.63" rerouteNo="0" devices="tripinfo_right_up_72" vType="typeC" vaporized=""/>
    <tripinfo id="right_24" depart="70.00" departLane="51o_0" departPos="3.10" departSpeed="0.00" departDelay="16.00" arrival="421.00" arrivalLane="52i_0" arrivalPos="10.00" arrivalSpeed="10.67" duration="351.00" routeLength="1017.10" waitSteps="225" timeLoss="271.32" rerouteNo="0" devices="tripinfo_right_24" vType="typeC" vaporized=""/>
    <tripinfo id="right_up_74" depart="238.00" departLane="51o_0" departPos="3.10" departSpeed="0.00" departDelay="9.00" arrival="425.00" arrivalLane="54i_0" arrivalPos="10.00" arrivalSpeed="10.93" duration="187.00" routeLength="1006.00" waitSteps="56" timeLoss="108.05" rerouteNo="0" devices="tripinfo_right_up_74" vType="typeC" vaporized=""/>
    <tripinfo id="right_up_76" depart="243.00" departLane="51o_0" departPos="3.10" departSpeed="0.00" departDelay="3.00" arrival="427.00" arrivalLane="54i_1" arrivalPos="10.00" arrivalSpeed="11.28" duration="184.00" routeLength="1006.00" waitSteps="49" timeLoss="104.84" rerouteNo="0" devices="tripinfo_right_up_76" vType="typeC" vaporized=""/>
    <tripinfo id="right_up_79" depart="251.00" departLane="51o_0" departPos="3.10" departSpeed="0.00" departDelay="2.00" arrival="428.00" arrivalLane="54i_0" arrivalPos="10.00" arrivalSpeed="11.25" duration="177.00" routeLength="1006.00" waitSteps="47" timeLoss="98.16" rerouteNo="0" devices="tripinfo_right_up_79" vType="typeC" vaporized=""/>
    <tripinfo id="right_up_84" depart="268.00" departLane="51o_0" departPos="3.10" departSpeed="0.00" departDelay="0.00" arrival="431.00" arrivalLane="54i_0" arrivalPos="10.00" arrivalSpeed="10.94" duration="163.00" routeLength="1006.00" waitSteps="30" timeLoss="83.63" rerouteNo="0" devices="tripinfo_right_up_84" vType="typeC" vaporized=""/>
    <tripinfo id="right_up_91" depart="291.00" departLane="51o_0" departPos="3.10" departSpeed="0.00" departDelay="8.00" arrival="432.00" arrivalLane="54i_0" arrivalPos="10.00" arrivalSpeed="11.44" duration="141.00" routeLength="1006.00" waitSteps="10" timeLoss="62.13" rerouteNo="0" devices="tripinfo_right_up_91" vType="typeC" vaporized=""/>
    <tripinfo id="left_110" depart="336.00" departLane="52o_0" departPos="3.10" departSpeed="0.00" departDelay="0.00" arrival="434.00" arrivalLane="51i_0" arrivalPos="10.00" arrivalSpeed="11.43" duration="98.00" routeLength="1017.10" waitSteps="0" timeLoss="18.18" rerouteNo="0" devices="tripinfo_left_110" vType="typeC" vaporized=""/>
    <tripinfo id="right_up_97" depart="304.00" departLane="51o_0" departPos="3.10" departSpeed="0.00" departDelay="0.00" arrival="435.00" arrivalLane="54i_0" arrivalPos="10.00" arrivalSpeed="11.35" duration="131.00" routeLength="1006.00" waitSteps="0" timeLoss="51.72" rerouteNo="0" devices="tripinfo_right_up_97" vType="typeC" vaporized=""/>
    <tripinfo id="right_102" depart="313.00" departLane="51o_0" departPos="3.10" departSpeed="0.00" departDelay="2.00" arrival="435.00" arrivalLane="52i_0" arrivalPos="10.00" arrivalSpeed="11.61" duration="122.00" routeLength="1017.10" waitSteps="0" timeLoss="42.41" rerouteNo="0" devices="tripinfo_right_102" vType="typeC" vaporized=""/>
    <tripinfo id="right_105" depart="318.00" departLane="51o_0" departPos="3.10" departSpeed="0.00" departDelay="0.00" arrival="437.00" arrivalLane="52i_0" arrivalPos="10.00" arrivalSpeed="10.95" duration="119.00" routeLength="1017.10" waitSteps="0" timeLoss="39.57" rerouteNo="0" devices="tripinfo_right_105" vType="typeC" vaporized=""/>
    <tripinfo id="right_26" depart="80.00" departLane="51o_0" departPos="3.10" departSpeed="0.00" departDelay="20.00" arrival="449.00" arrivalLane="52i_0" arrivalPos="10.00" arrivalSpeed="11.71" duration="369.00" routeLength="1017.10" waitSteps="236" timeLoss="289.13" rerouteNo="0" devices="tripinfo_right_26" vType="typeC" vaporized=""/>
    <tripinfo id="right_28" depart="88.00" departLane="51o_0" departPos="3.10" departSpeed="0.00" departDelay="20.00" arrival="451.00" arrivalLane="52i_0" arrivalPos="10.00" arrivalSpeed="10.60" duration="363.00" routeLength="1017.10" waitSteps="229" timeLoss="283.00" rerouteNo="0" devices="tripinfo_right_28" vType="typeC" vaporized=""/>
    <tripinfo id="right_33" depart="106.00" departLane="51o_0" departPos="3.10" departSpeed="0.00" departDelay="24.00" arrival="454.00" arrivalLane="52i_0" arrivalPos="10.00" arrivalSpeed="10.91" duration="348.00" routeLength="1017.10" waitSteps="209" timeLoss="267.69" rerouteNo="0" devices="tripinfo_right_33" vType="typeC" vaporized=""/>
    <tripinfo id="right_41" depart="132.00" departLane="51o_0" departPos="3.10" departSpeed="0.00" departDelay="4.00" arrival="455.00" arrivalLane="52i_0" arrivalPos="10.00" arrivalSpeed="11.82" duration="323.00" routeLength="1017.10" waitSteps="175" timeLoss="243.40" rerouteNo="0" devices="tripinfo_right_41" vType="typeC" vaporized=""/>
    <tripinfo id="right_56" depart="174.00" departLane="51o_0" departPos="3.10" departSpeed="0.00" departDelay="5.00" arrival="457.00" arrivalLane="52i_0" arrivalPos="10.00" arrivalSpeed="10.72" duration="283.00" routeLength="1017.10" waitSteps="137" timeLoss="203.06" rerouteNo="0" devices="tripinfo_right_56" vType="typeC" vaporized=""/>
    <tripinfo id="right_108" depart="334.00" departLane="51o_0" departPos="3.10" departSpeed="0.00" departDelay="0.00" arrival="459.00" arrivalLane="52i_0" arrivalPos="10.00" arrivalSpeed="10.67" duration="125.00" routeLength="1017.10" waitSteps="0" timeLoss="44.92" rerouteNo="0" devices="tripinfo_right_108" vType="typeC" vaporized=""/>
    <tripinfo id="right_down_4" depart="13.00" departLane="51o_0" departPos="3.10" departSpeed="0.00" departDelay="9.00" arrival="459.00" arrivalLane="53i_0" arrivalPos="10.00" arrivalSpeed="11.06" duration="446.00" routeLength="1007.41" waitSteps="329" timeLoss="366.48" rerouteNo="0" devices="tripinfo_right_down_4" vType="typeC" vaporized=""/>
    <tripinfo id="right_61" depart="187.00" departLane="51o_0" departPos="3.10" departSpeed="0.00" departDelay="2.00" arrival="461.00" arrivalLane="52i_0" arrivalPos="10.00" arrivalSpeed="10.77" duration="274.00" routeLength="1017.10" waitSteps="126" timeLoss="194.47" rerouteNo="0" devices="tripinfo_right_61" vType="typeC" vaporized=""/>
    <tripinfo id="right_down_8" depart="27.00" departLane="51o_0" departPos="3.10" departSpeed="0.00" departDelay="7.00" arrival="462.00" arrivalLane="53i_0" arrivalPos="10.00" arrivalSpeed="10.63" duration="435.00" routeLength="1007.41" waitSteps="314" timeLoss="354.90" rerouteNo="0" devices="tripinfo_right_down_8" vType="typeC" vaporized=""/>
    <tripinfo id="right_71" depart="228.00" departLane="51o_0" departPos="3.10" departSpeed="0.00" departDelay="2.00" arrival="463.00" arrivalLane="52i_1" arrivalPos="10.00" arrivalSpeed="11.60" duration="235.00" routeLength="1017.10" waitSteps="92" timeLoss="154.81" rerouteNo="0" devices="tripinfo_right_71" vType="typeC" vaporized=""/>
    <tripinfo id="right_down_17" depart="43.00" departLane="51o_0" departPos="7.10" departSpeed="0.00" departDelay="6.00" arrival="464.00" arrivalLane="53i_0" arrivalPos="10.00" arrivalSpeed="8.00" duration="421.00" routeLength="1003.41" waitSteps="307" timeLoss="349.73" rerouteNo="0" devices="tripinfo_right_down_17" vType="typeB" vaporized=""/>
    <tripinfo id="right_down_19" depart="52.00" departLane="51o_0" departPos="3.10" departSpeed="0.00" departDelay="10.00" arrival="466.00" arrivalLane="53i_1" arrivalPos="10.00" arrivalSpeed="9.78" duration="414.00" routeLength="1007.41" waitSteps="293" timeLoss="334.40" rerouteNo="0" devices="tripinfo_right_down_19" vType="typeC" vaporized=""/>
    <tripinfo id="right_22" depart="60.00" departLane="51o_0" departPos="3.10" departSpeed="0.00" departDelay="14.00" arrival="467.00" arrivalLane="52i_0" arrivalPos="10.00" arrivalSpeed="11.02" duration="407.00" routeLength="1017.10" waitSteps="284" timeLoss="327.55" rerouteNo="0" devices="tripinfo_right_22" vType="typeC" vaporized=""/>
    <tripinfo id="right_up_109" depart="338.00" departLane="51o_0" departPos="3.10" departSpeed="0.00" departDelay="3.00" arrival="468.00" arrivalLane="54i_0" arrivalPos="10.00" arrivalSpeed="11.77" duration="130.00" routeLength="1006.00" waitSteps="1" timeLoss="50.73" rerouteNo="0" devices="tripinfo_right_up_109" vType="typeC" vaporized=""/>
    <tripinfo id="right_90" depart="286.00" departLane="51o_0" departPos="3.10" departSpeed="0.00" departDelay="4.00" arrival="470.00" arrivalLane="52i_0" arrivalPos="10.00" arrivalSpeed="10.96" duration="184.00" routeLength="1017.10" waitSteps="35" timeLoss="104.49" rerouteNo="0" devices="tripinfo_right_90" vType="typeC" vaporized=""/>
    <tripinfo id="right_86" depart="272.00" departLane="51o_0" departPos="3.10" departSpeed="0.00" departDelay="1.00" arrival="470.00" arrivalLane="52i_1" arrivalPos="10.00" arrivalSpeed="11.10" duration="198.00" routeLength="1017.10" waitSteps="49" timeLoss="117.81" rerouteNo="0" devices="tripinfo_right_86" vType="typeC" vaporized=""/>
    <tripinfo id="right_98" depart="308.00" departLane="51o_0" departPos="3.10" departSpeed="0.00" departDelay="4.00" arrival="473.00" arrivalLane="52i_0" arrivalPos="10.00" arrivalSpeed="10.56" duration="165.00" routeLength="1017.10" waitSteps="24" timeLoss="85.13" rerouteNo="0" devices="tripinfo_right_98" vType="typeC" vaporized=""/>
    <tripinfo id="right_31" depart="98.00" departLane="51o_0" departPos="3.10" departSpeed="0.00" departDelay="25.00" arrival="473.00" arrivalLane="52i_1" arrivalPos="10.00" arrivalSpeed="11.41" duration="375.00" routeLength="1017.10" waitSteps="237" timeLoss="294.96" rerouteNo="0" devices="tripinfo_right_31" vType="typeC" vaporized=""/>
    <tripinfo id="right_down_38" depart="118.00" departLane="51o_0" departPos="3.10" departSpeed="0.00" departDelay="18.00" arrival="475.00" arrivalLane="53i_0" arrivalPos="10.00" arrivalSpeed="11.25" duration="357.00" routeLength="1007.41" waitSteps="209" timeLoss="276.84" rerouteNo="0" devices="tripinfo_right_down_38" vType="typeC" vaporized=""/>
    <tripinfo id="right_113" depart="349.00" departLane="51o_0" departPos="3.10" departSpeed="0.00" departDelay="11.00" arrival="477.00" arrivalLane="52i_0" arrivalPos="10.00" arrivalSpeed="11.41" duration="128.00" routeLength="1017.10" waitSteps="0" timeLoss="47.85" rerouteNo="0" devices="tripinfo_right_113" vType="typeC" vaporized=""/>