<?xml version="1.0" encoding="UTF-8"?>

<!-- generated on 3/27/2017 9:43:50 AM by SUMO gui Version 0.29.0
<?xml version="1.0" encoding="UTF-8"?>

<configuration xmlns:xsi="http://www.w3.org/2001/XMLSchema-instance" xsi:noNamespaceSchemaLocation="http://sumo.dlr.de/xsd/sumo-gui.exeConfiguration.xsd">

    <input>
        <net-file value="data/cross.net.xml"/>
        <route-files value="data/cross.rou.xml"/>
        <additional-files value="data/cross.det.xml"/>
    </input>

    <output>
        <tripinfo-output value="tripinfo.xml"/>
    </output>

    <time>
        <begin value="0"/>
    </time>

    <report>
        <verbose value="true"/>
        <duration-log.statistics value="true"/>
        <no-step-log value="true"/>
    </report>

    <traci_server>
        <remote-port value="52326"/>
    </traci_server>

</configuration>
-->

<tripinfos xmlns:xsi="http://www.w3.org/2001/XMLSchema-instance" xsi:noNamespaceSchemaLocation="http://sumo.dlr.de/xsd/tripinfo_file.xsd">
    <tripinfo id="up_right_1" depart="1.00" departLane="53o_0" departPos="3.10" departSpeed="0.00" departDelay="0.00" arrival="116.00" arrivalLane="52i_0" arrivalPos="10.00" arrivalSpeed="11.42" duration="115.00" routeLength="1007.41" waitSteps="2" timeLoss="35.47" rerouteNo="0" devices="tripinfo_up_right_1" vType="typeC" speedFactor="1.00" vaporized=""/>
    <tripinfo id="down_7" depart="19.00" departLane="54o_0" departPos="3.10" departSpeed="0.00" departDelay="0.00" arrival="117.00" arrivalLane="53i_0" arrivalPos="10.00" arrivalSpeed="11.20" duration="98.00" routeLength="1017.10" waitSteps="0" timeLoss="17.95" rerouteNo="0" devices="tripinfo_down_7" vType="typeC" speedFactor="1.00" vaporized=""/>
    <tripinfo id="down_9" depart="23.00" departLane="54o_0" departPos="3.10" departSpeed="0.00" departDelay="2.00" arrival="121.00" arrivalLane="53i_0" arrivalPos="10.00" arrivalSpeed="10.94" duration="98.00" routeLength="1017.10" waitSteps="0" timeLoss="17.98" rerouteNo="0" devices="tripinfo_down_9" vType="typeC" speedFactor="1.00" vaporized=""/>
    <tripinfo id="up_right_10" depart="26.00" departLane="53o_0" departPos="3.10" departSpeed="0.00" departDelay="0.00" arrival="125.00" arrivalLane="52i_0" arrivalPos="10.00" arrivalSpeed="11.76" duration="99.00" routeLength="1007.41" waitSteps="0" timeLoss="18.86" rerouteNo="0" devices="tripinfo_up_right_10" vType="typeC" speedFactor="1.00" vaporized=""/>
    <tripinfo id="down_left_11" depart="28.00" departLane="54o_0" departPos="3.10" departSpeed="0.00" departDelay="0.00" arrival="128.00" arrivalLane="53i_0" arrivalPos="10.00" arrivalSpeed="10.92" duration="100.00" routeLength="1017.10" waitSteps="0" timeLoss="19.84" rerouteNo="0" devices="tripinfo_down_left_11" vType="typeC" speedFactor="1.00" vaporized=""/>
    <tripinfo id="up_left_15" depart="34.00" departLane="53o_0" departPos="3.10" departSpeed="0.00" departDelay="0.00" arrival="128.00" arrivalLane="51i_0" arrivalPos="10.00" arrivalSpeed="11.30" duration="94.00" routeLength="1006.00" waitSteps="0" timeLoss="15.23" rerouteNo="0" devices="tripinfo_up_left_15" vType="typeC" speedFactor="1.00" vaporized=""/>
    <tripinfo id="right_up_0" depart="0.00" departLane="51o_0" departPos="7.10" departSpeed="0.00" departDelay="0.00" arrival="157.00" arrivalLane="54i_0" arrivalPos="10.00" arrivalSpeed="10.85" duration="157.00" routeLength="1002.00" waitSteps="57" timeLoss="86.25" rerouteNo="0" devices="tripinfo_right_up_0" vType="typeB" speedFactor="1.00" vaporized=""/>
    <tripinfo id="right_2" depart="4.00" departLane="51o_0" departPos="3.10" departSpeed="0.00" departDelay="3.00" arrival="160.00" arrivalLane="52i_0" arrivalPos="10.00" arrivalSpeed="11.17" duration="156.00" routeLength="1017.10" waitSteps="47" timeLoss="76.31" rerouteNo="0" devices="tripinfo_right_2" vType="typeC" speedFactor="1.00" vaporized=""/>
    <tripinfo id="left_12" depart="29.00" departLane="52o_0" departPos="3.10" departSpeed="0.00" departDelay="0.00" arrival="162.00" arrivalLane="51i_0" arrivalPos="10.00" arrivalSpeed="10.93" duration="133.00" routeLength="1017.10" waitSteps="19" timeLoss="53.50" rerouteNo="0" devices="tripinfo_left_12" vType="typeC" speedFactor="1.00" vaporized=""/>
    <tripinfo id="right_3" depart="8.00" departLane="51o_0" departPos="3.10" departSpeed="0.00" departDelay="6.00" arrival="163.00" arrivalLane="52i_0" arrivalPos="10.00" arrivalSpeed="11.54" duration="155.00" routeLength="1017.10" waitSteps="40" timeLoss="75.50" rerouteNo="0" devices="tripinfo_right_3" vType="typeC" speedFactor="1.00" vaporized=""/>
    <tripinfo id="right_down_4" depart="13.00" departLane="51o_0" departPos="3.10" departSpeed="0.00" departDelay="9.00" arrival="164.00" arrivalLane="53i_0" arrivalPos="10.00" arrivalSpeed="11.57" duration="151.00" routeLength="1007.41" waitSteps="37" timeLoss="71.17" rerouteNo="0" devices="tripinfo_right_down_4" vType="typeC" speedFactor="1.00" vaporized=""/>
    <tripinfo id="right_up_5" depart="18.00" departLane="51o_0" departPos="3.10" departSpeed="0.00" departDelay="10.00" arrival="166.00" arrivalLane="54i_0" arrivalPos="10.00" arrivalSpeed="10.83" duration="148.00" routeLength="1006.00" waitSteps="33" timeLoss="69.06" rerouteNo="0" devices="tripinfo_right_up_5" vType="typeC" speedFactor="1.00" vaporized=""/>
    <tripinfo id="right_down_8" depart="27.00" departLane="51o_0" departPos="3.10" departSpeed="0.00" departDelay="7.00" arrival="167.00" arrivalLane="53i_0" arrivalPos="10.00" arrivalSpeed="10.98" duration="140.00" routeLength="1007.41" waitSteps="23" timeLoss="60.46" rerouteNo="0" devices="tripinfo_right_down_8" vType="typeC" speedFactor="1.00" vaporized=""/>
    <tripinfo id="right_up_6" depart="22.00" departLane="51o_0" departPos="3.10" departSpeed="0.00" departDelay="8.00" arrival="168.00" arrivalLane="54i_0" arrivalPos="10.00" arrivalSpeed="11.26" duration="146.00" routeLength="1006.00" waitSteps="29" timeLoss="67.09" rerouteNo="0" devices="tripinfo_right_up_6" vType="typeC" speedFactor="1.00" vaporized=""/>
    <tripinfo id="right_down_17" depart="43.00" departLane="51o_0" departPos="7.10" departSpeed="0.00" departDelay="6.00" arrival="168.00" arrivalLane="53i_1" arrivalPos="10.00" arrivalSpeed="11.46" duration="125.00" routeLength="1003.41" waitSteps="18" timeLoss="53.86" rerouteNo="0" devices="tripinfo_right_down_17" vType="typeB" speedFactor="1.00" vaporized=""/>
    <tripinfo id="right_down_19" depart="52.00" departLane="51o_0" departPos="3.10" departSpeed="0.00" departDelay="10.00" arrival="171.00" arrivalLane="53i_0" arrivalPos="10.00" arrivalSpeed="11.12" duration="119.00" routeLength="1007.41" waitSteps="5" timeLoss="39.15" rerouteNo="0" devices="tripinfo_right_down_19" vType="typeC" speedFactor="1.00" vaporized=""/>
    <tripinfo id="right_14" depart="32.00" departLane="51o_0" departPos="3.10" departSpeed="0.00" departDelay="0.00" arrival="172.00" arrivalLane="52i_0" arrivalPos="10.00" arrivalSpeed="11.50" duration="140.00" routeLength="1017.10" waitSteps="22" timeLoss="59.70" rerouteNo="0" devices="tripinfo_right_14" vType="typeC" speedFactor="1.00" vaporized=""/>
    <tripinfo id="right_up_16" depart="37.00" departLane="51o_0" departPos="3.10" departSpeed="0.00" departDelay="2.00" arrival="172.00" arrivalLane="54i_0" arrivalPos="10.00" arrivalSpeed="10.68" duration="135.00" routeLength="1006.00" waitSteps="19" timeLoss="55.60" rerouteNo="0" devices="tripinfo_right_up_16" vType="typeC" speedFactor="1.00" vaporized=""/>
    <tripinfo id="right_20" depart="56.00" departLane="51o_0" departPos="3.10" departSpeed="0.00" departDelay="14.00" arrival="173.00" arrivalLane="52i_1" arrivalPos="10.00" arrivalSpeed="11.35" duration="117.00" routeLength="1017.10" waitSteps="1" timeLoss="37.09" rerouteNo="0" devices="tripinfo_right_20" vType="typeC" speedFactor="1.00" vaporized=""/>
    <tripinfo id="right_up_18" depart="47.00" departLane="51o_0" departPos="3.10" departSpeed="0.00" departDelay="9.00" arrival="174.00" arrivalLane="54i_0" arrivalPos="10.00" arrivalSpeed="11.02" duration="127.00" routeLength="1006.00" waitSteps="11" timeLoss="48.40" rerouteNo="0" devices="tripinfo_right_up_18" vType="typeC" speedFactor="1.00" vaporized=""/>
    <tripinfo id="right_22" depart="60.00" departLane="51o_0" departPos="3.10" departSpeed="0.00" departDelay="14.00" arrival="175.00" arrivalLane="52i_0" arrivalPos="10.00" arrivalSpeed="11.37" duration="115.00" routeLength="1017.10" waitSteps="0" timeLoss="35.16" rerouteNo="0" devices="tripinfo_right_22" vType="typeC" speedFactor="1.00" vaporized=""/>
    <tripinfo id="right_24" depart="70.00" departLane="51o_0" departPos="3.10" departSpeed="0.00" departDelay="16.00" arrival="177.00" arrivalLane="52i_1" arrivalPos="10.00" arrivalSpeed="11.17" duration="107.00" routeLength="1017.10" waitSteps="0" timeLoss="26.90" rerouteNo="0" devices="tripinfo_right_24" vType="typeC" speedFactor="1.00" vaporized=""/>
    <tripinfo id="right_23" depart="64.00" departLane="51o_0" departPos="3.10" departSpeed="0.00" departDelay="16.00" arrival="178.00" arrivalLane="52i_0" arrivalPos="10.00" arrivalSpeed="11.51" duration="114.00" routeLength="1017.10" waitSteps="1" timeLoss="33.69" rerouteNo="0" devices="tripinfo_right_23" vType="typeC" speedFactor="1.00" vaporized=""/>
    <tripinfo id="left_up_13" depart="33.00" departLane="52o_0" departPos="3.10" departSpeed="0.00" departDelay="3.00" arrival="189.00" arrivalLane="54i_0" arrivalPos="10.00" arrivalSpeed="11.53" duration="156.00" routeLength="1007.41" waitSteps="34" timeLoss="75.86" rerouteNo="0" devices="tripinfo_left_up_13" vType="typeC" speedFactor="1.00" vaporized=""/>
    <tripinfo id="left_up_21" depart="45.00" departLane="52o_0" departPos="3.10" departSpeed="0.00" departDelay="0.00" arrival="191.00" arrivalLane="54i_0" arrivalPos="10.00" arrivalSpeed="11.05" duration="146.00" routeLength="1007.41" waitSteps="23" timeLoss="66.61" rerouteNo="0" devices="tripinfo_left_up_21" vType="typeC" speedFactor="1.00" vaporized=""/>
    <tripinfo id="left_up_34" depart="83.00" departLane="52o_0" departPos="3.10" departSpeed="0.00" departDelay="0.00" arrival="193.00" arrivalLane="54i_0" arrivalPos="10.00" arrivalSpeed="11.48" duration="110.00" routeLength="1007.41" waitSteps="0" timeLoss="30.17" rerouteNo="0" devices="tripinfo_left_up_34" vType="typeC" speedFactor="1.00" vaporized=""/>
    <tripinfo id="up_right_29" depart="73.00" departLane="53o_0" departPos="3.10" departSpeed="0.00" departDelay="0.00" arrival="204.00" arrivalLane="52i_0" arrivalPos="10.00" arrivalSpeed="10.68" duration="131.00" routeLength="1007.41" waitSteps="23" timeLoss="51.35" rerouteNo="0" devices="tripinfo_up_right_29" vType="typeC" speedFactor="1.00" vaporized=""/>
    <tripinfo id="up_right_43" depart="131.00" departLane="53o_0" departPos="3.10" departSpeed="0.00" departDelay="0.00" arrival="231.00" arrivalLane="52i_0" arrivalPos="10.00" arrivalSpeed="11.34" duration="100.00" routeLength="1007.41" waitSteps="0" timeLoss="20.39" rerouteNo="0" devices="tripinfo_up_right_43" vType="typeC" speedFactor="1.00" vaporized=""/>
    <tripinfo id="left_down_47" depart="146.00" departLane="52o_0" departPos="3.10" departSpeed="0.00" departDelay="0.00" arrival="244.00" arrivalLane="53i_0" arrivalPos="10.00" arrivalSpeed="11.28" duration="98.00" routeLength="1006.00" waitSteps="0" timeLoss="19.20" rerouteNo="0" devices="tripinfo_left_down_47" vType="typeC" speedFactor="1.00" vaporized=""/>
    <tripinfo id="left_down_49" depart="154.00" departLane="52o_0" departPos="7.10" departSpeed="0.00" departDelay="3.00" arrival="246.00" arrivalLane="53i_1" arrivalPos="10.00" arrivalSpeed="11.32" duration="92.00" routeLength="1002.00" waitSteps="0" timeLoss="20.66" rerouteNo="0" devices="tripinfo_left_down_49" vType="typeB" speedFactor="1.00" vaporized=""/>
    <tripinfo id="right_up_25" depart="75.00" departLane="51o_0" departPos="3.10" departSpeed="0.00" departDelay="15.00" arrival="250.00" arrivalLane="54i_0" arrivalPos="10.00" arrivalSpeed="11.02" duration="175.00" routeLength="1006.00" waitSteps="60" timeLoss="96.27" rerouteNo="0" devices="tripinfo_right_up_25" vType="typeC" speedFactor="1.00" vaporized=""/>
    <tripinfo id="left_36" depart="98.00" departLane="52o_0" departPos="3.10" departSpeed="0.00" departDelay="0.00" arrival="250.00" arrivalLane="51i_0" arrivalPos="10.00" arrivalSpeed="11.00" duration="152.00" routeLength="1017.10" waitSteps="41" timeLoss="71.82" rerouteNo="0" devices="tripinfo_left_36" vType="typeC" speedFactor="1.00" vaporized=""/>
    <tripinfo id="right_26" depart="81.00" departLane="51o_0" departPos="3.10" departSpeed="0.00" departDelay="21.00" arrival="252.00" arrivalLane="52i_0" arrivalPos="10.00" arrivalSpeed="11.04" duration="171.00" routeLength="1017.10" waitSteps="57" timeLoss="91.64" rerouteNo="0" devices="tripinfo_right_26" vType="typeC" speedFactor="1.00" vaporized=""/>
    <tripinfo id="right_28" depart="89.00" departLane="51o_0" departPos="3.10" departSpeed="0.00" departDelay="21.00" arrival="255.00" arrivalLane="52i_1" arrivalPos="10.00" arrivalSpeed="11.18" duration="166.00" routeLength="1017.10" waitSteps="49" timeLoss="85.86" rerouteNo="0" devices="tripinfo_right_28" vType="typeC" speedFactor="1.00" vaporized=""/>
    <tripinfo id="right_27" depart="85.00" departLane="51o_0" departPos="3.10" departSpeed="0.00" departDelay="21.00" arrival="255.00" arrivalLane="52i_0" arrivalPos="10.00" arrivalSpeed="10.87" duration="170.00" routeLength="1017.10" waitSteps="57" timeLoss="90.42" rerouteNo="0" devices="tripinfo_right_27" vType="typeC" speedFactor="1.00" vaporized=""/>
    <tripinfo id="right_31" depart="98.00" departLane="51o_0" departPos="3.10" departSpeed="0.00" departDelay="25.00" arrival="257.00" arrivalLane="52i_0" arrivalPos="10.00" arrivalSpeed="11.18" duration="159.00" routeLength="1017.10" waitSteps="41" timeLoss="79.18" rerouteNo="0" devices="tripinfo_right_31" vType="typeC" speedFactor="1.00" vaporized=""/>
    <tripinfo id="right_up_30" depart="94.00" departLane="51o_0" departPos="3.10" departSpeed="0.00" departDelay="21.00" arrival="257.00" arrivalLane="54i_0" arrivalPos="10.00" arrivalSpeed="10.73" duration="163.00" routeLength="1006.00" waitSteps="51" timeLoss="83.50" rerouteNo="0" devices="tripinfo_right_up_30" vType="typeC" speedFactor="1.00" vaporized=""/>
    <tripinfo id="right_33" depart="108.00" departLane="51o_0" departPos="3.10" departSpeed="0.00" departDelay="26.00" arrival="259.00" arrivalLane="52i_0" arrivalPos="10.00" arrivalSpeed="11.68" duration="151.00" routeLength="1017.10" waitSteps="38" timeLoss="70.92" rerouteNo="0" devices="tripinfo_right_33" vType="typeC" speedFactor="1.00" vaporized=""/>
    <tripinfo id="right_32" depart="103.00" departLane="51o_0" departPos="3.10" departSpeed="0.00" departDelay="28.00" arrival="261.00" arrivalLane="52i_0" arrivalPos="10.00" arrivalSpeed="10.78" duration="158.00" routeLength="1017.10" waitSteps="42" timeLoss="78.27" rerouteNo="0" devices="tripinfo_right_32" vType="typeC" speedFactor="1.00" vaporized=""/>
    <tripinfo id="right_up_35" depart="113.00" departLane="51o_0" departPos="5.10" departSpeed="0.00" departDelay="29.00" arrival="262.00" arrivalLane="54i_0" arrivalPos="10.00" arrivalSpeed="11.40" duration="149.00" routeLength="1004.00" waitSteps="37" timeLoss="77.66" rerouteNo="0" devices="tripinfo_right_up_35" vType="typeA" speedFactor="1.00" vaporized=""/>
    <tripinfo id="right_down_38" depart="117.00" departLane="51o_0" departPos="3.10" departSpeed="0.00" departDelay="17.00" arrival="262.00" arrivalLane="53i_0" arrivalPos="10.00" arrivalSpeed="11.39" duration="145.00" routeLength="1007.41" waitSteps="30" timeLoss="65.01" rerouteNo="0" devices="tripinfo_right_down_38" vType="typeC" speedFactor="1.00" vaporized=""/>
    <tripinfo id="left_55" depart="166.00" departLane="52o_0" departPos="3.10" departSpeed="0.00" departDelay="0.00" arrival="263.00" arrivalLane="51i_0" arrivalPos="10.00" arrivalSpeed="11.83" duration="97.00" routeLength="1017.10" waitSteps="0" timeLoss="17.45" rerouteNo="0" devices="tripinfo_left_55" vType="typeC" speedFactor="1.00" vaporized=""/>
    <tripinfo id="right_40" depart="127.00" departLane="51o_0" departPos="3.10" departSpeed="0.00" departDelay="24.00" arrival="264.00" arrivalLane="52i_0" arrivalPos="10.00" arrivalSpeed="10.43" duration="137.00" routeLength="1017.10" waitSteps="21" timeLoss="57.43" rerouteNo="0" devices="tripinfo_right_40" vType="typeC" speedFactor="1.00" vaporized=""/>
    <tripinfo id="right_up_39" depart="122.00" departLane="51o_0" departPos="3.10" departSpeed="0.00" departDelay="20.00" arrival="266.00" arrivalLane="54i_0" arrivalPos="10.00" arrivalSpeed="11.49" duration="144.00" routeLength="1006.00" waitSteps="25" timeLoss="64.73" rerouteNo="0" devices="tripinfo_right_up_39" vType="typeC" speedFactor="1.00" vaporized=""/>
    <tripinfo id="right_41" depart="132.00" departLane="51o_0" departPos="3.10" departSpeed="0.00" departDelay="4.00" arrival="267.00" arrivalLane="52i_0" arrivalPos="10.00" arrivalSpeed="11.40" duration="135.00" routeLength="1017.10" waitSteps="20" timeLoss="55.52" rerouteNo="0" devices="tripinfo_right_41" vType="typeC" speedFactor="1.00" vaporized=""/>
    <tripinfo id="right_down_50" depart="153.00" departLane="51o_0" departPos="7.10" departSpeed="0.00" departDelay="2.00" arrival="267.00" arrivalLane="53i_0" arrivalPos="10.00" arrivalSpeed="11.20" duration="114.00" routeLength="1003.41" waitSteps="6" timeLoss="42.21" rerouteNo="0" devices="tripinfo_right_down_50" vType="typeB" speedFactor="1.00" vaporized=""/>
    <tripinfo id="right_52" depart="162.00" departLane="51o_0" departPos="3.10" departSpeed="0.00" departDelay="6.00" arrival="269.00" arrivalLane="52i_1" arrivalPos="10.00" arrivalSpeed="11.45" duration="107.00" routeLength="1017.10" waitSteps="0" timeLoss="26.94" rerouteNo="0" devices="tripinfo_right_52" vType="typeC" speedFactor="1.00" vaporized=""/>
    <tripinfo id="right_46" depart="141.00" departLane="51o_0" departPos="3.10" departSpeed="0.00" departDelay="0.00" arrival="271.00" arrivalLane="52i_0" arrivalPos="10.00" arrivalSpeed="11.24" duration="130.00" routeLength="1017.10" waitSteps="5" timeLoss="50.43" rerouteNo="0" devices="tripinfo_right_46" vType="typeC" speedFactor="1.00" vaporized=""/>
    <tripinfo id="left_up_37" depart="102.00" departLane="52o_0" departPos="3.10" departSpeed="0.00" departDelay="3.00" arrival="279.00" arrivalLane="54i_0" arrivalPos="10.00" arrivalSpeed="11.06" duration="177.00" routeLength="1007.41" waitSteps="57" timeLoss="96.90" rerouteNo="0" devices="tripinfo_left_up_37" vType="typeC" speedFactor="1.00" vaporized=""/>
    <tripinfo id="left_up_57" depart="173.00" departLane="52o_0" departPos="3.10" departSpeed="0.00" departDelay="0.00" arrival="284.00" arrivalLane="54i_0" arrivalPos="10.00" arrivalSpeed="11.57" duration="111.00" routeLength="1007.41" waitSteps="0" timeLoss="31.18" rerouteNo="0" devices="tripinfo_left_up_57" vType="typeC" speedFactor="1.00" vaporized=""/>
    <tripinfo id="down_42" depart="129.00" departLane="54o_0" departPos="3.10" departSpeed="0.00" departDelay="0.00" arrival="295.00" arrivalLane="53i_0" arrivalPos="10.00" arrivalSpeed="11.06" duration="166.00" routeLength="1017.10" waitSteps="53" timeLoss="86.37" rerouteNo="0" devices="tripinfo_down_42" vType="typeC" speedFactor="1.00" vaporized=""/>
    <tripinfo id="up_45" depart="141.00" departLane="53o_0" departPos="3.10" departSpeed="0.00" departDelay="0.00" arrival="298.00" arrivalLane="54i_0" arrivalPos="10.00" arrivalSpeed="10.80" duration="157.00" routeLength="1017.10" waitSteps="42" timeLoss="77.56" rerouteNo="0" devices="tripinfo_up_45" vType="typeC" speedFactor="1.00" vaporized=""/>
    <tripinfo id="up_58" depart="183.00" departLane="53o_0" departPos="3.10" departSpeed="0.00" departDelay="0.00" arrival="298.00" arrivalLane="54i_1" arrivalPos="10.00" arrivalSpeed="11.16" duration="115.00" routeLength="1017.10" waitSteps="1" timeLoss="34.90" rerouteNo="0" devices="tripinfo_up_58" vType="typeC" speedFactor="1.00" vaporized=""/>
    <tripinfo id="down_left_60" depart="185.00" departLane="54o_0" departPos="3.10" departSpeed="0.00" departDelay="0.00" arrival="299.00" arrivalLane="53i_0" arrivalPos="10.00" arrivalSpeed="11.11" duration="114.00" routeLength="1017.10" waitSteps="0" timeLoss="34.11" rerouteNo="0" devices="tripinfo_down_left_60" vType="typeC" speedFactor="1.00" vaporized=""/>
    <tripinfo id="down_44" depart="140.00" departLane="54o_0" departPos="3.10" departSpeed="0.00" departDelay="0.00" arrival="299.00" arrivalLane="53i_1" arrivalPos="10.00" arrivalSpeed="11.26" duration="159.00" routeLength="1017.10" waitSteps="44" timeLoss="79.31" rerouteNo="0" devices="tripinfo_down_44" vType="typeC" speedFactor="1.00" vaporized=""/>
    <tripinfo id="down_left_65" depart="197.00" departLane="54o_0" departPos="3.10" departSpeed="0.00" departDelay="0.00" arrival="300.00" arrivalLane="53i_0" arrivalPos="10.00" arrivalSpeed="11.03" duration="103.00" routeLength="1017.10" waitSteps="0" timeLoss="23.35" rerouteNo="0" devices="tripinfo_down_left_65" vType="typeC" speedFactor="1.00" vaporized=""/>
    <tripinfo id="up_right_67" depart="209.00" departLane="53o_0" departPos="3.10" departSpeed="0.00" departDelay="0.00" arrival="313.00" arrivalLane="52i_0" arrivalPos="10.00" arrivalSpeed="11.04" duration="104.00" routeLength="1007.41" waitSteps="0" timeLoss="23.75" rerouteNo="0" devices="tripinfo_up_right_67" vType="typeC" speedFactor="1.00" vaporized=""/>
    <tripinfo id="left_64" depart="196.00" departLane="52o_0" departPos="3.10" departSpeed="0.00" departDelay="0.00" arrival="340.00" arrivalLane="51i_0" arrivalPos="10.00" arrivalSpeed="11.65" duration="144.00" routeLength="1017.10" waitSteps="33" timeLoss="63.88" rerouteNo="0" devices="tripinfo_left_64" vType="typeC" speedFactor="1.00" vaporized=""/>
    <tripinfo id="right_48" depart="147.00" departLane="51o_0" departPos="3.10" departSpeed="0.00" departDelay="0.00" arrival="341.00" arrivalLane="52i_0" arrivalPos="10.00" arrivalSpeed="11.35" duration="194.00" routeLength="1017.10" waitSteps="68" timeLoss="114.18" rerouteNo="0" devices="tripinfo_right_48" vType="typeC" speedFactor="1.00" vaporized=""/>
    <tripinfo id="right_53" depart="167.00" departLane="51o_0" departPos="3.10" departSpeed="0.00" departDelay="9.00" arrival="342.00" arrivalLane="52i_0" arrivalPos="10.00" arrivalSpeed="11.62" duration="175.00" routeLength="1017.10" waitSteps="60" timeLoss="94.85" rerouteNo="0" devices="tripinfo_right_53" vType="typeC" speedFactor="1.00" vaporized=""/>
    <tripinfo id="right_54" depart="171.00" departLane="51o_0" departPos="3.10" departSpeed="0.00" departDelay="7.00" arrival="344.00" arrivalLane="52i_1" arrivalPos="10.00" arrivalSpeed="11.71" duration="173.00" routeLength="1017.10" waitSteps="54" timeLoss="93.23" rerouteNo="0" devices="tripinfo_right_54" vType="typeC" speedFactor="1.00" vaporized=""/>
    <tripinfo id="right_51" depart="158.00" departLane="51o_0" departPos="3.10" departSpeed="0.00" departDelay="5.00" arrival="345.00" arrivalLane="52i_0" arrivalPos="10.00" arrivalSpeed="11.33" duration="187.00" routeLength="1017.10" waitSteps="59" timeLoss="107.11" rerouteNo="0" devices="tripinfo_right_51" vType="typeC" speedFactor="1.00" vaporized=""/>
    <tripinfo id="right_61" depart="188.00" departLane="51o_0" departPos="3.10" departSpeed="0.00" departDelay="3.00" arrival="346.00" arrivalLane="52i_1" arrivalPos="10.00" arrivalSpeed="11.10" duration="158.00" routeLength="1017.10" waitSteps="41" timeLoss="78.10" rerouteNo="0" devices="tripinfo_right_61" vType="typeC" speedFactor="1.00" vaporized=""/>
    <tripinfo id="right_up_59" depart="183.00" departLane="51o_0" departPos="3.10" departSpeed="0.00" departDelay="0.00" arrival="347.00" arrivalLane="54i_0" arrivalPos="10.00" arrivalSpeed="11.32" duration="164.00" routeLength="1006.00" waitSteps="51" timeLoss="84.88" rerouteNo="0" devices="tripinfo_right_up_59" vType="typeC" speedFactor="1.00" vaporized=""/>
    <tripinfo id="right_56" depart="176.00" departLane="51o_0" departPos="3.10" departSpeed="0.00" departDelay="7.00" arrival="347.00" arrivalLane="52i_0" arrivalPos="10.00" arrivalSpeed="11.13" duration="171.00" routeLength="1017.10" waitSteps="57" timeLoss="91.02" rerouteNo="0" devices="tripinfo_right_56" vType="typeC" speedFactor="1.00" vaporized=""/>
    <tripinfo id="right_down_62" depart="193.00" departLane="51o_0" departPos="3.10" departSpeed="0.00" departDelay="5.00" arrival="347.00" arrivalLane="53i_0" arrivalPos="10.00" arrivalSpeed="11.13" duration="154.00" routeLength="1007.41" waitSteps="40" timeLoss="73.83" rerouteNo="0" devices="tripinfo_right_down_62" vType="typeC" speedFactor="1.00" vaporized=""/>
    <tripinfo id="left_78" depart="247.00" departLane="52o_0" departPos="3.10" departSpeed="0.00" departDelay="0.00" arrival="348.00" arrivalLane="51i_0" arrivalPos="10.00" arrivalSpeed="11.03" duration="101.00" routeLength="1017.10" waitSteps="0" timeLoss="20.76" rerouteNo="0" devices="tripinfo_left_78" vType="typeC" speedFactor="1.00" vaporized=""/>
    <tripinfo id="right_66" depart="201.00" departLane="51o_0" departPos="3.10" departSpeed="0.00" departDelay="1.00" arrival="351.00" arrivalLane="52i_0" arrivalPos="10.00" arrivalSpeed="11.43" duration="150.00" routeLength="1017.10" waitSteps="36" timeLoss="70.11" rerouteNo="0" devices="tripinfo_right_66" vType="typeC" speedFactor="1.00" vaporized=""/>
    <tripinfo id="right_up_69" depart="217.00" departLane="51o_0" departPos="3.10" departSpeed="0.00" departDelay="0.00" arrival="352.00" arrivalLane="54i_0" arrivalPos="10.00" arrivalSpeed="10.81" duration="135.00" routeLength="1006.00" waitSteps="21" timeLoss="56.37" rerouteNo="0" devices="tripinfo_right_up_69" vType="typeC" speedFactor="1.00" vaporized=""/>
    <tripinfo id="right_68" depart="209.00" departLane="51o_0" departPos="3.10" departSpeed="0.00" departDelay="0.00" arrival="352.00" arrivalLane="52i_0" arrivalPos="10.00" arrivalSpeed="11.33" duration="143.00" routeLength="1017.10" waitSteps="28" timeLoss="63.66" rerouteNo="0" devices="tripinfo_right_68" vType="typeC" speedFactor="1.00" vaporized=""/>
    <tripinfo id="left_80" depart="252.00" departLane="52o_0" departPos="3.10" departSpeed="0.00" departDelay="1.00" arrival="352.00" arrivalLane="51i_0" arrivalPos="10.00" arrivalSpeed="11.61" duration="100.00" routeLength="1017.10" waitSteps="0" timeLoss="20.37" rerouteNo="0" devices="tripinfo_left_80" vType="typeC" speedFactor="1.00" vaporized=""/>
    <tripinfo id="right_71" depart="229.00" departLane="51o_0" departPos="3.10" departSpeed="0.00" departDelay="3.00" arrival="353.00" arrivalLane="52i_1" arrivalPos="10.00" arrivalSpeed="11.67" duration="124.00" routeLength="1017.10" waitSteps="9" timeLoss="44.06" rerouteNo="0" devices="tripinfo_right_71" vType="typeC" speedFactor="1.00" vaporized=""/>
    <tripinfo id="right_up_70" depart="224.00" departLane="51o_0" departPos="3.10" departSpeed="0.00" departDelay="0.00" arrival="356.00" arrivalLane="54i_0" arrivalPos="10.00" arrivalSpeed="11.66" duration="132.00" routeLength="1006.00" waitSteps="15" timeLoss="52.55" rerouteNo="0" devices="tripinfo_right_up_70" vType="typeC" speedFactor="1.00" vaporized=""/>
    <tripinfo id="right_up_72" depart="232.00" departLane="51o_0" departPos="3.10" departSpeed="0.00" departDelay="5.00" arrival="358.00" arrivalLane="54i_0" arrivalPos="10.00" arrivalSpeed="11.31" duration="126.00" routeLength="1006.00" waitSteps="10" timeLoss="47.22" rerouteNo="0" devices="tripinfo_right_up_72" vType="typeC" speedFactor="1.00" vaporized=""/>
    <tripinfo id="right_down_63" depart="197.00" departLane="51o_0" departPos="3.10" departSpeed="0.00" departDelay="2.00" arrival="365.00" arrivalLane="53i_0" arrivalPos="10.00" arrivalSpeed="10.96" duration="168.00" routeLength="1007.41" waitSteps="42" timeLoss="88.24" rerouteNo="0" devices="tripinfo_right_down_63" vType="typeC" speedFactor="1.00" vaporized=""/>
    <tripinfo id="right_down_77" depart="244.00" departLane="51o_0" departPos="3.10" departSpeed="0.00" departDelay="1.00" arrival="367.00" arrivalLane="53i_0" arrivalPos="10.00" arrivalSpeed="11.36" duration="123.00" routeLength="1007.41" waitSteps="3" timeLoss="43.32" rerouteNo="0" devices="tripinfo_right_down_77" vType="typeC" speedFactor="1.00" vaporized=""/>
    <tripinfo id="left_up_73" depart="229.00" departLane="52o_0" departPos="3.10" departSpeed="0.00" departDelay="0.00" arrival="368.00" arrivalLane="54i_0" arrivalPos="10.00" arrivalSpeed="10.99" duration="139.00" routeLength="1007.41" waitSteps="20" timeLoss="58.86" rerouteNo="0" devices="tripinfo_left_up_73" vType="typeC" speedFactor="1.00" vaporized=""/>
    <tripinfo id="left_up_81" depart="261.00" departLane="52o_0" departPos="3.10" departSpeed="0.00" departDelay="0.00" arrival="371.00" arrivalLane="54i_0" arrivalPos="10.00" arrivalSpeed="11.54" duration="110.00" routeLength="1007.41" waitSteps="0" timeLoss="30.27" rerouteNo="0" devices="tripinfo_left_up_81" vType="typeC" speedFactor="1.00" vaporized=""/>
    <tripinfo id="left_up_83" depart="269.00" departLane="52o_0" departPos="3.10" departSpeed="0.00" departDelay="2.00" arrival="372.00" arrivalLane="54i_1" arrivalPos="10.00" arrivalSpeed="11.53" duration="103.00" routeLength="1007.41" waitSteps="0" timeLoss="23.52" rerouteNo="0" devices="tripinfo_left_up_83" vType="typeC" speedFactor="1.00" vaporized=""/>
    <tripinfo id="up_85" depart="269.00" departLane="53o_0" departPos="3.10" departSpeed="0.00" departDelay="0.00" arrival="387.00" arrivalLane="54i_0" arrivalPos="10.00" arrivalSpeed="10.79" duration="118.00" routeLength="1017.10" waitSteps="4" timeLoss="37.90" rerouteNo="0" devices="tripinfo_up_85" vType="typeC" speedFactor="1.00" vaporized=""/>