<?xml version="1.0" encoding="UTF-8"?>

<!-- generated on 3/29/2017 2:30:09 AM by SUMO gui Version 0.29.0
<?xml version="1.0" encoding="UTF-8"?>

<configuration xmlns:xsi="http://www.w3.org/2001/XMLSchema-instance" xsi:noNamespaceSchemaLocation="http://sumo.dlr.de/xsd/sumo-gui.exeConfiguration.xsd">

    <input>
        <net-file value="data/cross.net.xml"/>
        <route-files value="data/cross.rou.xml"/>
        <additional-files value="data/cross.det.xml"/>
    </input>

    <output>
        <tripinfo-output value="tripinfo.xml"/>
    </output>

    <time>
        <begin value="0"/>
    </time>

    <report>
        <verbose value="true"/>
        <duration-log.statistics value="true"/>
        <no-step-log value="true"/>
    </report>

    <traci_server>
        <remote-port value="54893"/>
    </traci_server>

</configuration>
-->

<tripinfos xmlns:xsi="http://www.w3.org/2001/XMLSchema-instance" xsi:noNamespaceSchemaLocation="http://sumo.dlr.de/xsd/tripinfo_file.xsd">
    <tripinfo id="up_right_1" depart="1.00" departLane="53o_0" departPos="3.10" departSpeed="0.00" departDelay="0.00" arrival="116.00" arrivalLane="52i_0" arrivalPos="10.00" arrivalSpeed="11.42" duration="115.00" routeLength="1007.41" waitSteps="2" timeLoss="35.47" rerouteNo="0" devices="tripinfo_up_right_1" vType="typeC" speedFactor="1.00" vaporized=""/>
    <tripinfo id="down_7" depart="19.00" departLane="54o_0" departPos="3.10" departSpeed="0.00" departDelay="0.00" arrival="117.00" arrivalLane="53i_0" arrivalPos="10.00" arrivalSpeed="11.20" duration="98.00" routeLength="1017.10" waitSteps="0" timeLoss="17.95" rerouteNo="0" devices="tripinfo_down_7" vType="typeC" speedFactor="1.00" vaporized=""/>
    <tripinfo id="down_9" depart="23.00" departLane="54o_0" departPos="3.10" departSpeed="0.00" departDelay="2.00" arrival="121.00" arrivalLane="53i_0" arrivalPos="10.00" arrivalSpeed="10.94" duration="98.00" routeLength="1017.10" waitSteps="0" timeLoss="17.98" rerouteNo="0" devices="tripinfo_down_9" vType="typeC" speedFactor="1.00" vaporized=""/>
    <tripinfo id="up_right_10" depart="26.00" departLane="53o_0" departPos="3.10" departSpeed="0.00" departDelay="0.00" arrival="125.00" arrivalLane="52i_0" arrivalPos="10.00" arrivalSpeed="11.76" duration="99.00" routeLength="1007.41" waitSteps="0" timeLoss="18.86" rerouteNo="0" devices="tripinfo_up_right_10" vType="typeC" speedFactor="1.00" vaporized=""/>
    <tripinfo id="down_left_11" depart="28.00" departLane="54o_0" departPos="3.10" departSpeed="0.00" departDelay="0.00" arrival="128.00" arrivalLane="53i_0" arrivalPos="10.00" arrivalSpeed="10.92" duration="100.00" routeLength="1017.10" waitSteps="0" timeLoss="19.84" rerouteNo="0" devices="tripinfo_down_left_11" vType="typeC" speedFactor="1.00" vaporized=""/>
    <tripinfo id="up_left_15" depart="34.00" departLane="53o_0" departPos="3.10" departSpeed="0.00" departDelay="0.00" arrival="128.00" arrivalLane="51i_0" arrivalPos="10.00" arrivalSpeed="11.30" duration="94.00" routeLength="1006.00" waitSteps="0" timeLoss="15.23" rerouteNo="0" devices="tripinfo_up_left_15" vType="typeC" speedFactor="1.00" vaporized=""/>
    <tripinfo id="right_up_0" depart="0.00" departLane="51o_0" departPos="7.10" departSpeed="0.00" departDelay="0.00" arrival="157.00" arrivalLane="54i_0" arrivalPos="10.00" arrivalSpeed="10.85" duration="157.00" routeLength="1002.00" waitSteps="57" timeLoss="86.25" rerouteNo="0" devices="tripinfo_right_up_0" vType="typeB" speedFactor="1.00" vaporized=""/>
    <tripinfo id="right_2" depart="4.00" departLane="51o_0" departPos="3.10" departSpeed="0.00" departDelay="3.00" arrival="160.00" arrivalLane="52i_0" arrivalPos="10.00" arrivalSpeed="11.17" duration="156.00" routeLength="1017.10" waitSteps="47" timeLoss="76.31" rerouteNo="0" devices="tripinfo_right_2" vType="typeC" speedFactor="1.00" vaporized=""/>
    <tripinfo id="left_12" depart="29.00" departLane="52o_0" departPos="3.10" departSpeed="0.00" departDelay="0.00" arrival="162.00" arrivalLane="51i_0" arrivalPos="10.00" arrivalSpeed="10.93" duration="133.00" routeLength="1017.10" waitSteps="19" timeLoss="53.50" rerouteNo="0" devices="tripinfo_left_12" vType="typeC" speedFactor="1.00" vaporized=""/>
    <tripinfo id="right_3" depart="8.00" departLane="51o_0" departPos="3.10" departSpeed="0.00" departDelay="6.00" arrival="163.00" arrivalLane="52i_0" arrivalPos="10.00" arrivalSpeed="11.54" duration="155.00" routeLength="1017.10" waitSteps="40" timeLoss="75.50" rerouteNo="0" devices="tripinfo_right_3" vType="typeC" speedFactor="1.00" vaporized=""/>
    <tripinfo id="right_down_4" depart="13.00" departLane="51o_0" departPos="3.10" departSpeed="0.00" departDelay="9.00" arrival="164.00" arrivalLane="53i_0" arrivalPos="10.00" arrivalSpeed="11.57" duration="151.00" routeLength="1007.41" waitSteps="37" timeLoss="71.17" rerouteNo="0" devices="tripinfo_right_down_4" vType="typeC" speedFactor="1.00" vaporized=""/>
    <tripinfo id="right_up_5" depart="18.00" departLane="51o_0" departPos="3.10" departSpeed="0.00" departDelay="10.00" arrival="166.00" arrivalLane="54i_0" arrivalPos="10.00" arrivalSpeed="10.83" duration="148.00" routeLength="1006.00" waitSteps="33" timeLoss="69.06" rerouteNo="0" devices="tripinfo_right_up_5" vType="typeC" speedFactor="1.00" vaporized=""/>
    <tripinfo id="right_down_8" depart="27.00" departLane="51o_0" departPos="3.10" departSpeed="0.00" departDelay="7.00" arrival="167.00" arrivalLane="53i_0" arrivalPos="10.00" arrivalSpeed="10.98" duration="140.00" routeLength="1007.41" waitSteps="23" timeLoss="60.46" rerouteNo="0" devices="tripinfo_right_down_8" vType="typeC" speedFactor="1.00" vaporized=""/>
    <tripinfo id="right_up_6" depart="22.00" departLane="51o_0" departPos="3.10" departSpeed="0.00" departDelay="8.00" arrival="168.00" arrivalLane="54i_0" arrivalPos="10.00" arrivalSpeed="11.26" duration="146.00" routeLength="1006.00" waitSteps="29" timeLoss="67.09" rerouteNo="0" devices="tripinfo_right_up_6" vType="typeC" speedFactor="1.00" vaporized=""/>
    <tripinfo id="right_down_17" depart="43.00" departLane="51o_0" departPos="7.10" departSpeed="0.00" departDelay="6.00" arrival="168.00" arrivalLane="53i_1" arrivalPos="10.00" arrivalSpeed="11.46" duration="125.00" routeLength="1003.41" waitSteps="18" timeLoss="53.86" rerouteNo="0" devices="tripinfo_right_down_17" vType="typeB" speedFactor="1.00" vaporized=""/>
    <tripinfo id="right_down_19" depart="52.00" departLane="51o_0" departPos="3.10" departSpeed="0.00" departDelay="10.00" arrival="171.00" arrivalLane="53i_0" arrivalPos="10.00" arrivalSpeed="11.12" duration="119.00" routeLength="1007.41" waitSteps="5" timeLoss="39.15" rerouteNo="0" devices="tripinfo_right_down_19" vType="typeC" speedFactor="1.00" vaporized=""/>
    <tripinfo id="right_14" depart="32.00" departLane="51o_0" departPos="3.10" departSpeed="0.00" departDelay="0.00" arrival="172.00" arrivalLane="52i_0" arrivalPos="10.00" arrivalSpeed="11.50" duration="140.00" routeLength="1017.10" waitSteps="22" timeLoss="59.70" rerouteNo="0" devices="tripinfo_right_14" vType="typeC" speedFactor="1.00" vaporized=""/>
    <tripinfo id="right_up_16" depart="37.00" departLane="51o_0" departPos="3.10" departSpeed="0.00" departDelay="2.00" arrival="172.00" arrivalLane="54i_0" arrivalPos="10.00" arrivalSpeed="10.68" duration="135.00" routeLength="1006.00" waitSteps="19" timeLoss="55.60" rerouteNo="0" devices="tripinfo_right_up_16" vType="typeC" speedFactor="1.00" vaporized=""/>
    <tripinfo id="right_20" depart="56.00" departLane="51o_0" departPos="3.10" departSpeed="0.00" departDelay="14.00" arrival="173.00" arrivalLane="52i_1" arrivalPos="10.00" arrivalSpeed="11.35" duration="117.00" routeLength="1017.10" waitSteps="1" timeLoss="37.09" rerouteNo="0" devices="tripinfo_right_20" vType="typeC" speedFactor="1.00" vaporized=""/>
    <tripinfo id="right_up_18" depart="47.00" departLane="51o_0" departPos="3.10" departSpeed="0.00" departDelay="9.00" arrival="174.00" arrivalLane="54i_0" arrivalPos="10.00" arrivalSpeed="11.02" duration="127.00" routeLength="1006.00" waitSteps="11" timeLoss="48.40" rerouteNo="0" devices="tripinfo_right_up_18" vType="typeC" speedFactor="1.00" vaporized=""/>
    <tripinfo id="right_22" depart="60.00" departLane="51o_0" departPos="3.10" departSpeed="0.00" departDelay="14.00" arrival="175.00" arrivalLane="52i_0" arrivalPos="10.00" arrivalSpeed="11.37" duration="115.00" routeLength="1017.10" waitSteps="0" timeLoss="35.16" rerouteNo="0" devices="tripinfo_right_22" vType="typeC" speedFactor="1.00" vaporized=""/>
    <tripinfo id="right_24" depart="70.00" departLane="51o_0" departPos="3.10" departSpeed="0.00" departDelay="16.00" arrival="177.00" arrivalLane="52i_1" arrivalPos="10.00" arrivalSpeed="11.17" duration="107.00" routeLength="1017.10" waitSteps="0" timeLoss="26.90" rerouteNo="0" devices="tripinfo_right_24" vType="typeC" speedFactor="1.00" vaporized=""/>
    <tripinfo id="right_23" depart="64.00" departLane="51o_0" departPos="3.10" departSpeed="0.00" departDelay="16.00" arrival="178.00" arrivalLane="52i_0" arrivalPos="10.00" arrivalSpeed="11.51" duration="114.00" routeLength="1017.10" waitSteps="1" timeLoss="33.69" rerouteNo="0" devices="tripinfo_right_23" vType="typeC" speedFactor="1.00" vaporized=""/>
    <tripinfo id="left_up_13" depart="33.00" departLane="52o_0" departPos="3.10" departSpeed="0.00" departDelay="3.00" arrival="189.00" arrivalLane="54i_0" arrivalPos="10.00" arrivalSpeed="11.53" duration="156.00" routeLength="1007.41" waitSteps="34" timeLoss="75.86" rerouteNo="0" devices="tripinfo_left_up_13" vType="typeC" speedFactor="1.00" vaporized=""/>
    <tripinfo id="left_up_21" depart="45.00" departLane="52o_0" departPos="3.10" departSpeed="0.00" departDelay="0.00" arrival="191.00" arrivalLane="54i_0" arrivalPos="10.00" arrivalSpeed="11.05" duration="146.00" routeLength="1007.41" waitSteps="23" timeLoss="66.61" rerouteNo="0" devices="tripinfo_left_up_21" vType="typeC" speedFactor="1.00" vaporized=""/>
    <tripinfo id="left_up_34" depart="83.00" departLane="52o_0" departPos="3.10" departSpeed="0.00" departDelay="0.00" arrival="193.00" arrivalLane="54i_0" arrivalPos="10.00" arrivalSpeed="11.48" duration="110.00" routeLength="1007.41" waitSteps="0" timeLoss="30.17" rerouteNo="0" devices="tripinfo_left_up_34" vType="typeC" speedFactor="1.00" vaporized=""/>
    <tripinfo id="up_right_29" depart="73.00" departLane="53o_0" departPos="3.10" departSpeed="0.00" departDelay="0.00" arrival="204.00" arrivalLane="52i_0" arrivalPos="10.00" arrivalSpeed="10.68" duration="131.00" routeLength="1007.41" waitSteps="23" timeLoss="51.35" rerouteNo="0" devices="tripinfo_up_right_29" vType="typeC" speedFactor="1.00" vaporized=""/>
</tripinfos>
