<?xml version="1.0" encoding="UTF-8"?>

<!-- generated on Tuesday 04 April 2017 06:04:49 PM IST by SUMO gui Version 0.28.0
<?xml version="1.0" encoding="UTF-8"?>

<configuration xmlns:xsi="http://www.w3.org/2001/XMLSchema-instance" xsi:noNamespaceSchemaLocation="http://sumo.dlr.de/xsd/sumo-gui.exeConfiguration.xsd">

    <input>
        <net-file value="data/cross.net.xml"/>
        <route-files value="data/cross.rou.xml"/>
        <additional-files value="data/cross.add.xml"/>
    </input>

    <output>
        <queue-output value="queue.xml"/>
        <tripinfo-output value="tripinfo.xml"/>
    </output>

    <time>
        <begin value="0"/>
    </time>

    <report>
        <verbose value="true"/>
        <duration-log.statistics value="true"/>
        <no-step-log value="true"/>
    </report>

    <traci_server>
        <remote-port value="53015"/>
    </traci_server>

</configuration>
-->

<tripinfos xmlns:xsi="http://www.w3.org/2001/XMLSchema-instance" xsi:noNamespaceSchemaLocation="http://sumo.dlr.de/xsd/tripinfo_file.xsd">
    <tripinfo id="right_up_0" depart="0.00" departLane="51o_0" departPos="7.10" departSpeed="0.00" departDelay="0.00" arrival="91.00" arrivalLane="54i_0" arrivalPos="10.00" arrivalSpeed="11.66" duration="91.00" routeLength="1002.00" waitSteps="0" timeLoss="20.56" rerouteNo="0" devices="tripinfo_right_up_0" vType="typeB" vaporized=""/>
    <tripinfo id="up_right_1" depart="1.00" departLane="53o_0" departPos="3.10" departSpeed="0.00" departDelay="0.00" arrival="99.00" arrivalLane="52i_0" arrivalPos="10.00" arrivalSpeed="11.42" duration="98.00" routeLength="1007.41" waitSteps="0" timeLoss="18.56" rerouteNo="0" devices="tripinfo_up_right_1" vType="typeC" vaporized=""/>
    <tripinfo id="left_12" depart="29.00" departLane="52o_0" departPos="3.10" departSpeed="0.00" departDelay="0.00" arrival="129.00" arrivalLane="51i_0" arrivalPos="10.00" arrivalSpeed="11.15" duration="100.00" routeLength="1017.10" waitSteps="0" timeLoss="20.03" rerouteNo="0" devices="tripinfo_left_12" vType="typeC" vaporized=""/>
    <tripinfo id="up_left_15" depart="34.00" departLane="53o_0" departPos="3.10" departSpeed="0.00" departDelay="0.00" arrival="132.00" arrivalLane="51i_0" arrivalPos="10.00" arrivalSpeed="10.93" duration="98.00" routeLength="1006.00" waitSteps="0" timeLoss="18.71" rerouteNo="0" devices="tripinfo_up_left_15" vType="typeC" vaporized=""/>
    <tripinfo id="right_3" depart="8.00" departLane="51o_0" departPos="3.10" departSpeed="0.00" departDelay="6.00" arrival="140.00" arrivalLane="52i_1" arrivalPos="10.00" arrivalSpeed="11.24" duration="132.00" routeLength="1017.10" waitSteps="19" timeLoss="52.35" rerouteNo="0" devices="tripinfo_right_3" vType="typeC" vaporized=""/>
    <tripinfo id="right_2" depart="4.00" departLane="51o_0" departPos="3.10" departSpeed="0.00" departDelay="3.00" arrival="140.00" arrivalLane="52i_0" arrivalPos="10.00" arrivalSpeed="11.10" duration="136.00" routeLength="1017.10" waitSteps="27" timeLoss="56.43" rerouteNo="0" devices="tripinfo_right_2" vType="typeC" vaporized=""/>
    <tripinfo id="right_up_5" depart="18.00" departLane="51o_0" departPos="3.10" departSpeed="0.00" departDelay="10.00" arrival="143.00" arrivalLane="54i_0" arrivalPos="10.00" arrivalSpeed="10.99" duration="125.00" routeLength="1006.00" waitSteps="12" timeLoss="46.19" rerouteNo="0" devices="tripinfo_right_up_5" vType="typeC" vaporized=""/>
    <tripinfo id="right_up_6" depart="22.00" departLane="51o_0" departPos="3.10" departSpeed="0.00" departDelay="8.00" arrival="145.00" arrivalLane="54i_1" arrivalPos="10.00" arrivalSpeed="10.69" duration="123.00" routeLength="1006.00" waitSteps="5" timeLoss="44.23" rerouteNo="0" devices="tripinfo_right_up_6" vType="typeC" vaporized=""/>
    <tripinfo id="right_up_16" depart="37.00" departLane="51o_0" departPos="3.10" departSpeed="0.00" departDelay="2.00" arrival="148.00" arrivalLane="54i_0" arrivalPos="10.00" arrivalSpeed="11.05" duration="111.00" routeLength="1006.00" waitSteps="0" timeLoss="32.02" rerouteNo="0" devices="tripinfo_right_up_16" vType="typeC" vaporized=""/>
    <tripinfo id="right_14" depart="32.00" departLane="51o_0" departPos="3.10" departSpeed="0.00" departDelay="0.00" arrival="148.00" arrivalLane="52i_0" arrivalPos="10.00" arrivalSpeed="10.63" duration="116.00" routeLength="1017.10" waitSteps="1" timeLoss="36.60" rerouteNo="0" devices="tripinfo_right_14" vType="typeC" vaporized=""/>
    <tripinfo id="right_up_18" depart="47.00" departLane="51o_0" departPos="3.10" departSpeed="0.00" departDelay="9.00" arrival="150.00" arrivalLane="54i_0" arrivalPos="10.00" arrivalSpeed="10.98" duration="103.00" routeLength="1006.00" waitSteps="0" timeLoss="23.65" rerouteNo="0" devices="tripinfo_right_up_18" vType="typeC" vaporized=""/>
    <tripinfo id="right_20" depart="56.00" departLane="51o_0" departPos="3.10" departSpeed="0.00" departDelay="14.00" arrival="154.00" arrivalLane="52i_0" arrivalPos="10.00" arrivalSpeed="11.75" duration="98.00" routeLength="1017.10" waitSteps="1" timeLoss="18.33" rerouteNo="0" devices="tripinfo_right_20" vType="typeC" vaporized=""/>
    <tripinfo id="right_22" depart="61.00" departLane="51o_0" departPos="3.10" departSpeed="0.00" departDelay="15.00" arrival="161.00" arrivalLane="52i_0" arrivalPos="10.00" arrivalSpeed="11.03" duration="100.00" routeLength="1017.10" waitSteps="0" timeLoss="20.32" rerouteNo="0" devices="tripinfo_right_22" vType="typeC" vaporized=""/>
    <tripinfo id="right_23" depart="65.00" departLane="51o_0" departPos="3.10" departSpeed="0.00" departDelay="17.00" arrival="165.00" arrivalLane="52i_0" arrivalPos="10.00" arrivalSpeed="11.02" duration="100.00" routeLength="1017.10" waitSteps="1" timeLoss="19.98" rerouteNo="0" devices="tripinfo_right_23" vType="typeC" vaporized=""/>
    <tripinfo id="right_24" depart="71.00" departLane="51o_0" departPos="3.10" departSpeed="0.00" departDelay="17.00" arrival="169.00" arrivalLane="52i_0" arrivalPos="10.00" arrivalSpeed="10.90" duration="98.00" routeLength="1017.10" waitSteps="0" timeLoss="17.70" rerouteNo="0" devices="tripinfo_right_24" vType="typeC" vaporized=""/>
    <tripinfo id="right_down_4" depart="13.00" departLane="51o_0" departPos="3.10" departSpeed="0.00" departDelay="9.00" arrival="169.00" arrivalLane="53i_0" arrivalPos="10.00" arrivalSpeed="11.34" duration="156.00" routeLength="1007.41" waitSteps="37" timeLoss="76.17" rerouteNo="0" devices="tripinfo_right_down_4" vType="typeC" vaporized=""/>
    <tripinfo id="right_down_8" depart="27.00" departLane="51o_0" departPos="3.10" departSpeed="0.00" departDelay="7.00" arrival="170.00" arrivalLane="53i_1" arrivalPos="10.00" arrivalSpeed="11.26" duration="143.00" routeLength="1007.41" waitSteps="22" timeLoss="63.27" rerouteNo="0" devices="tripinfo_right_down_8" vType="typeC" vaporized=""/>
    <tripinfo id="right_down_17" depart="43.00" departLane="51o_0" departPos="7.10" departSpeed="0.00" departDelay="6.00" arrival="171.00" arrivalLane="53i_0" arrivalPos="10.00" arrivalSpeed="11.07" duration="128.00" routeLength="1003.41" waitSteps="18" timeLoss="56.74" rerouteNo="0" devices="tripinfo_right_down_17" vType="typeB" vaporized=""/>
    <tripinfo id="right_up_25" depart="75.00" departLane="51o_0" departPos="3.10" departSpeed="0.00" departDelay="15.00" arrival="172.00" arrivalLane="54i_0" arrivalPos="10.00" arrivalSpeed="11.30" duration="97.00" routeLength="1006.00" waitSteps="0" timeLoss="17.56" rerouteNo="0" devices="tripinfo_right_up_25" vType="typeC" vaporized=""/>
    <tripinfo id="right_down_19" depart="52.00" departLane="51o_0" departPos="3.10" departSpeed="0.00" departDelay="10.00" arrival="174.00" arrivalLane="53i_0" arrivalPos="10.00" arrivalSpeed="11.12" duration="122.00" routeLength="1007.41" waitSteps="10" timeLoss="42.07" rerouteNo="0" devices="tripinfo_right_down_19" vType="typeC" vaporized=""/>
    <tripinfo id="right_26" depart="80.00" departLane="51o_0" departPos="3.10" departSpeed="0.00" departDelay="20.00" arrival="181.00" arrivalLane="52i_0" arrivalPos="10.00" arrivalSpeed="10.88" duration="101.00" routeLength="1017.10" waitSteps="1" timeLoss="21.48" rerouteNo="0" devices="tripinfo_right_26" vType="typeC" vaporized=""/>
    <tripinfo id="down_7" depart="19.00" departLane="54o_0" departPos="3.10" departSpeed="0.00" departDelay="0.00" arrival="195.00" arrivalLane="53i_0" arrivalPos="10.00" arrivalSpeed="10.73" duration="176.00" routeLength="1017.10" waitSteps="65" timeLoss="95.94" rerouteNo="0" devices="tripinfo_down_7" vType="typeC" vaporized=""/>
    <tripinfo id="down_9" depart="23.00" departLane="54o_0" departPos="3.10" departSpeed="0.00" departDelay="2.00" arrival="198.00" arrivalLane="53i_0" arrivalPos="10.00" arrivalSpeed="11.03" duration="175.00" routeLength="1017.10" waitSteps="61" timeLoss="94.91" rerouteNo="0" devices="tripinfo_down_9" vType="typeC" vaporized=""/>
    <tripinfo id="down_left_11" depart="28.00" departLane="54o_0" departPos="3.10" departSpeed="0.00" departDelay="0.00" arrival="200.00" arrivalLane="53i_0" arrivalPos="10.00" arrivalSpeed="11.45" duration="172.00" routeLength="1017.10" waitSteps="55" timeLoss="91.92" rerouteNo="0" devices="tripinfo_down_left_11" vType="typeC" vaporized=""/>
    <tripinfo id="down_42" depart="129.00" departLane="54o_0" departPos="3.10" departSpeed="0.00" departDelay="0.00" arrival="231.00" arrivalLane="53i_0" arrivalPos="10.00" arrivalSpeed="11.30" duration="102.00" routeLength="1017.10" waitSteps="0" timeLoss="22.08" rerouteNo="0" devices="tripinfo_down_42" vType="typeC" vaporized=""/>
    <tripinfo id="up_45" depart="141.00" departLane="53o_0" departPos="3.10" departSpeed="0.00" departDelay="0.00" arrival="240.00" arrivalLane="54i_0" arrivalPos="10.00" arrivalSpeed="11.04" duration="99.00" routeLength="1017.10" waitSteps="0" timeLoss="19.69" rerouteNo="0" devices="tripinfo_up_45" vType="typeC" vaporized=""/>
    <tripinfo id="up_right_10" depart="26.00" departLane="53o_0" departPos="3.10" departSpeed="0.00" departDelay="0.00" arrival="250.00" arrivalLane="52i_0" arrivalPos="10.00" arrivalSpeed="11.72" duration="224.00" routeLength="1007.41" waitSteps="113" timeLoss="144.47" rerouteNo="0" devices="tripinfo_up_right_10" vType="typeC" vaporized=""/>
    <tripinfo id="up_right_29" depart="73.00" departLane="53o_0" departPos="3.10" departSpeed="0.00" departDelay="0.00" arrival="252.00" arrivalLane="52i_0" arrivalPos="10.00" arrivalSpeed="10.55" duration="179.00" routeLength="1007.41" waitSteps="66" timeLoss="99.64" rerouteNo="0" devices="tripinfo_up_right_29" vType="typeC" vaporized=""/>
    <tripinfo id="up_right_43" depart="131.00" departLane="53o_0" departPos="3.10" departSpeed="0.00" departDelay="0.00" arrival="254.00" arrivalLane="52i_0" arrivalPos="10.00" arrivalSpeed="10.98" duration="123.00" routeLength="1007.41" waitSteps="8" timeLoss="43.59" rerouteNo="0" devices="tripinfo_up_right_43" vType="typeC" vaporized=""/>
    <tripinfo id="left_up_13" depart="33.00" departLane="52o_0" departPos="3.10" departSpeed="0.00" departDelay="3.00" arrival="277.00" arrivalLane="54i_0" arrivalPos="10.00" arrivalSpeed="11.38" duration="244.00" routeLength="1007.41" waitSteps="130" timeLoss="164.02" rerouteNo="0" devices="tripinfo_left_up_13" vType="typeC" vaporized=""/>
    <tripinfo id="left_36" depart="98.00" departLane="52o_0" departPos="3.10" departSpeed="0.00" departDelay="0.00" arrival="277.00" arrivalLane="51i_0" arrivalPos="10.00" arrivalSpeed="11.16" duration="179.00" routeLength="1017.10" waitSteps="63" timeLoss="99.40" rerouteNo="0" devices="tripinfo_left_36" vType="typeC" vaporized=""/>
    <tripinfo id="left_down_47" depart="146.00" departLane="52o_0" departPos="3.10" departSpeed="0.00" departDelay="0.00" arrival="278.00" arrivalLane="53i_0" arrivalPos="10.00" arrivalSpeed="10.91" duration="132.00" routeLength="1006.00" waitSteps="17" timeLoss="53.25" rerouteNo="0" devices="tripinfo_left_down_47" vType="typeC" vaporized=""/>
    <tripinfo id="left_up_21" depart="45.00" departLane="52o_0" departPos="3.10" departSpeed="0.00" departDelay="0.00" arrival="280.00" arrivalLane="54i_0" arrivalPos="10.00" arrivalSpeed="10.77" duration="235.00" routeLength="1007.41" waitSteps="121" timeLoss="155.60" rerouteNo="0" devices="tripinfo_left_up_21" vType="typeC" vaporized=""/>
    <tripinfo id="left_down_49" depart="154.00" departLane="52o_0" departPos="7.10" departSpeed="0.00" departDelay="3.00" arrival="280.00" arrivalLane="53i_1" arrivalPos="10.00" arrivalSpeed="11.57" duration="126.00" routeLength="1002.00" waitSteps="16" timeLoss="54.98" rerouteNo="0" devices="tripinfo_left_down_49" vType="typeB" vaporized=""/>
    <tripinfo id="left_up_34" depart="83.00" departLane="52o_0" departPos="3.10" departSpeed="0.00" departDelay="0.00" arrival="282.00" arrivalLane="54i_0" arrivalPos="10.00" arrivalSpeed="11.15" duration="199.00" routeLength="1007.41" waitSteps="85" timeLoss="119.25" rerouteNo="0" devices="tripinfo_left_up_34" vType="typeC" vaporized=""/>
    <tripinfo id="left_55" depart="166.00" departLane="52o_0" departPos="3.10" departSpeed="0.00" departDelay="0.00" arrival="283.00" arrivalLane="51i_0" arrivalPos="10.00" arrivalSpeed="10.92" duration="117.00" routeLength="1017.10" waitSteps="6" timeLoss="37.46" rerouteNo="0" devices="tripinfo_left_55" vType="typeC" vaporized=""/>
    <tripinfo id="left_up_37" depart="102.00" departLane="52o_0" departPos="3.10" departSpeed="0.00" departDelay="3.00" arrival="284.00" arrivalLane="54i_0" arrivalPos="10.00" arrivalSpeed="11.46" duration="182.00" routeLength="1007.41" waitSteps="68" timeLoss="102.53" rerouteNo="0" devices="tripinfo_left_up_37" vType="typeC" vaporized=""/>
    <tripinfo id="left_up_57" depart="173.00" departLane="52o_0" departPos="3.10" departSpeed="0.00" departDelay="0.00" arrival="286.00" arrivalLane="54i_0" arrivalPos="10.00" arrivalSpeed="10.93" duration="113.00" routeLength="1007.41" waitSteps="0" timeLoss="33.24" rerouteNo="0" devices="tripinfo_left_up_57" vType="typeC" vaporized=""/>
    <tripinfo id="left_64" depart="196.00" departLane="52o_0" departPos="3.10" departSpeed="0.00" departDelay="0.00" arrival="292.00" arrivalLane="51i_0" arrivalPos="10.00" arrivalSpeed="11.22" duration="96.00" routeLength="1017.10" waitSteps="0" timeLoss="16.54" rerouteNo="0" devices="tripinfo_left_64" vType="typeC" vaporized=""/>
    <tripinfo id="right_27" depart="86.00" departLane="51o_0" departPos="3.10" departSpeed="0.00" departDelay="22.00" arrival="301.00" arrivalLane="52i_0" arrivalPos="10.00" arrivalSpeed="10.96" duration="215.00" routeLength="1017.10" waitSteps="103" timeLoss="135.26" rerouteNo="0" devices="tripinfo_right_27" vType="typeC" vaporized=""/>
    <tripinfo id="right_28" depart="92.00" departLane="51o_0" departPos="3.10" departSpeed="0.00" departDelay="24.00" arrival="302.00" arrivalLane="52i_0" arrivalPos="10.00" arrivalSpeed="10.82" duration="210.00" routeLength="1017.10" waitSteps="99" timeLoss="129.81" rerouteNo="0" devices="tripinfo_right_28" vType="typeC" vaporized=""/>
    <tripinfo id="right_up_30" depart="96.00" departLane="51o_0" departPos="3.10" departSpeed="0.00" departDelay="23.00" arrival="303.00" arrivalLane="54i_0" arrivalPos="10.00" arrivalSpeed="10.82" duration="207.00" routeLength="1006.00" waitSteps="95" timeLoss="128.22" rerouteNo="0" devices="tripinfo_right_up_30" vType="typeC" vaporized=""/>
    <tripinfo id="right_32" depart="105.00" departLane="51o_0" departPos="3.10" departSpeed="0.00" departDelay="30.00" arrival="306.00" arrivalLane="52i_0" arrivalPos="10.00" arrivalSpeed="11.51" duration="201.00" routeLength="1017.10" waitSteps="87" timeLoss="121.17" rerouteNo="0" devices="tripinfo_right_32" vType="typeC" vaporized=""/>
    <tripinfo id="right_31" depart="100.00" departLane="51o_0" departPos="3.10" departSpeed="0.00" departDelay="27.00" arrival="306.00" arrivalLane="52i_1" arrivalPos="10.00" arrivalSpeed="10.63" duration="206.00" routeLength="1017.10" waitSteps="87" timeLoss="126.10" rerouteNo="0" devices="tripinfo_right_31" vType="typeC" vaporized=""/>
    <tripinfo id="right_up_35" depart="117.00" departLane="51o_0" departPos="5.10" departSpeed="0.00" departDelay="33.00" arrival="308.00" arrivalLane="54i_0" arrivalPos="10.00" arrivalSpeed="11.00" duration="191.00" routeLength="1004.00" waitSteps="81" timeLoss="120.02" rerouteNo="0" devices="tripinfo_right_up_35" vType="typeA" vaporized=""/>
    <tripinfo id="right_33" depart="110.00" departLane="51o_0" departPos="3.10" departSpeed="0.00" departDelay="28.00" arrival="308.00" arrivalLane="52i_0" arrivalPos="10.00" arrivalSpeed="10.69" duration="198.00" routeLength="1017.10" waitSteps="78" timeLoss="118.28" rerouteNo="0" devices="tripinfo_right_33" vType="typeC" vaporized=""/>
    <tripinfo id="right_up_39" depart="125.00" departLane="51o_0" departPos="3.10" departSpeed="0.00" departDelay="23.00" arrival="311.00" arrivalLane="54i_0" arrivalPos="10.00" arrivalSpeed="11.69" duration="186.00" routeLength="1006.00" waitSteps="72" timeLoss="107.08" rerouteNo="0" devices="tripinfo_right_up_39" vType="typeC" vaporized=""/>
    <tripinfo id="right_46" depart="141.00" departLane="51o_0" departPos="3.10" departSpeed="0.00" departDelay="0.00" arrival="314.00" arrivalLane="52i_0" arrivalPos="10.00" arrivalSpeed="11.00" duration="173.00" routeLength="1017.10" waitSteps="55" timeLoss="93.38" rerouteNo="0" devices="tripinfo_right_46" vType="typeC" vaporized=""/>
    <tripinfo id="right_48" depart="147.00" departLane="51o_0" departPos="3.10" departSpeed="0.00" departDelay="0.00" arrival="317.00" arrivalLane="52i_0" arrivalPos="10.00" arrivalSpeed="11.71" duration="170.00" routeLength="1017.10" waitSteps="55" timeLoss="90.59" rerouteNo="0" devices="tripinfo_right_48" vType="typeC" vaporized=""/>
    <tripinfo id="right_51" depart="158.00" departLane="51o_0" departPos="3.10" departSpeed="0.00" departDelay="5.00" arrival="319.00" arrivalLane="52i_0" arrivalPos="10.00" arrivalSpeed="10.71" duration="161.00" routeLength="1017.10" waitSteps="41" timeLoss="81.31" rerouteNo="0" devices="tripinfo_right_51" vType="typeC" vaporized=""/>
    <tripinfo id="right_53" depart="167.00" departLane="51o_0" departPos="3.10" departSpeed="0.00" departDelay="9.00" arrival="321.00" arrivalLane="52i_0" arrivalPos="10.00" arrivalSpeed="11.40" duration="154.00" routeLength="1017.10" waitSteps="36" timeLoss="73.84" rerouteNo="0" devices="tripinfo_right_53" vType="typeC" vaporized=""/>
    <tripinfo id="right_up_59" depart="183.00" departLane="51o_0" departPos="3.10" departSpeed="0.00" departDelay="0.00" arrival="326.00" arrivalLane="54i_0" arrivalPos="10.00" arrivalSpeed="11.59" duration="143.00" routeLength="1006.00" waitSteps="20" timeLoss="63.51" rerouteNo="0" devices="tripinfo_right_up_59" vType="typeC" vaporized=""/>
    <tripinfo id="right_56" depart="177.00" departLane="51o_0" departPos="3.10" departSpeed="0.00" departDelay="8.00" arrival="326.00" arrivalLane="52i_0" arrivalPos="10.00" arrivalSpeed="11.65" duration="149.00" routeLength="1017.10" waitSteps="28" timeLoss="68.85" rerouteNo="0" devices="tripinfo_right_56" vType="typeC" vaporized=""/>
    <tripinfo id="right_66" depart="202.00" departLane="51o_0" departPos="3.10" departSpeed="0.00" departDelay="2.00" arrival="327.00" arrivalLane="52i_0" arrivalPos="10.00" arrivalSpeed="11.61" duration="125.00" routeLength="1017.10" waitSteps="6" timeLoss="45.34" rerouteNo="0" devices="tripinfo_right_66" vType="typeC" vaporized=""/>
    <tripinfo id="right_68" depart="209.00" departLane="51o_0" departPos="3.10" departSpeed="0.00" departDelay="0.00" arrival="329.00" arrivalLane="52i_0" arrivalPos="10.00" arrivalSpeed="11.27" duration="120.00" routeLength="1017.10" waitSteps="2" timeLoss="40.07" rerouteNo="0" devices="tripinfo_right_68" vType="typeC" vaporized=""/>
    <tripinfo id="right_up_69" depart="217.00" departLane="51o_0" departPos="3.10" departSpeed="0.00" departDelay="0.00" arrival="330.00" arrivalLane="54i_0" arrivalPos="10.00" arrivalSpeed="11.56" duration="113.00" routeLength="1006.00" waitSteps="0" timeLoss="34.27" rerouteNo="0" devices="tripinfo_right_up_69" vType="typeC" vaporized=""/>
    <tripinfo id="right_up_70" depart="224.00" departLane="51o_0" departPos="3.10" departSpeed="0.00" departDelay="0.00" arrival="333.00" arrivalLane="54i_0" arrivalPos="10.00" arrivalSpeed="11.08" duration="109.00" routeLength="1006.00" waitSteps="0" timeLoss="29.89" rerouteNo="0" devices="tripinfo_right_up_70" vType="typeC" vaporized=""/>
    <tripinfo id="right_down_38" depart="121.00" departLane="51o_0" departPos="3.10" departSpeed="0.00" departDelay="21.00" arrival="333.00" arrivalLane="53i_0" arrivalPos="10.00" arrivalSpeed="10.87" duration="212.00" routeLength="1007.41" waitSteps="89" timeLoss="132.26" rerouteNo="0" devices="tripinfo_right_down_38" vType="typeC" vaporized=""/>
    <tripinfo id="right_up_72" depart="232.00" departLane="51o_0" departPos="3.10" departSpeed="0.00" departDelay="5.00" arrival="335.00" arrivalLane="54i_0" arrivalPos="10.00" arrivalSpeed="11.33" duration="103.00" routeLength="1006.00" waitSteps="1" timeLoss="24.05" rerouteNo="0" devices="tripinfo_right_up_72" vType="typeC" vaporized=""/>
    <tripinfo id="right_40" depart="130.00" departLane="51o_0" departPos="3.10" departSpeed="0.00" departDelay="27.00" arrival="335.00" arrivalLane="52i_0" arrivalPos="10.00" arrivalSpeed="11.44" duration="205.00" routeLength="1017.10" waitSteps="77" timeLoss="125.44" rerouteNo="0" devices="tripinfo_right_40" vType="typeC" vaporized=""/>
    <tripinfo id="right_down_50" depart="154.00" departLane="51o_0" departPos="7.10" departSpeed="0.00" departDelay="3.00" arrival="335.00" arrivalLane="53i_0" arrivalPos="10.00" arrivalSpeed="11.24" duration="181.00" routeLength="1003.41" waitSteps="62" timeLoss="109.78" rerouteNo="0" devices="tripinfo_right_down_50" vType="typeB" vaporized=""/>
    <tripinfo id="right_up_74" depart="237.00" departLane="51o_0" departPos="3.10" departSpeed="0.00" departDelay="8.00" arrival="337.00" arrivalLane="54i_0" arrivalPos="10.00" arrivalSpeed="11.00" duration="100.00" routeLength="1006.00" waitSteps="0" timeLoss="20.74" rerouteNo="0" devices="tripinfo_right_up_74" vType="typeC" vaporized=""/>
    <tripinfo id="right_71" depart="228.00" departLane="51o_0" departPos="3.10" departSpeed="0.00" departDelay="2.00" arrival="337.00" arrivalLane="52i_0" arrivalPos="10.00" arrivalSpeed="11.13" duration="109.00" routeLength="1017.10" waitSteps="0" timeLoss="29.17" rerouteNo="0" devices="tripinfo_right_71" vType="typeC" vaporized=""/>
    <tripinfo id="right_41" depart="136.00" departLane="51o_0" departPos="3.10" departSpeed="0.00" departDelay="8.00" arrival="337.00" arrivalLane="52i_1" arrivalPos="10.00" arrivalSpeed="10.83" duration="201.00" routeLength="1017.10" waitSteps="67" timeLoss="120.95" rerouteNo="0" devices="tripinfo_right_41" vType="typeC" vaporized=""/>
    <tripinfo id="right_up_76" depart="241.00" departLane="51o_0" departPos="3.10" departSpeed="0.00" departDelay="1.00" arrival="338.00" arrivalLane="54i_1" arrivalPos="10.00" arrivalSpeed="11.15" duration="97.00" routeLength="1006.00" waitSteps="0" timeLoss="18.13" rerouteNo="0" devices="tripinfo_right_up_76" vType="typeC" vaporized=""/>
    <tripinfo id="right_52" depart="162.00" departLane="51o_0" departPos="3.10" departSpeed="0.00" departDelay="6.00" arrival="341.00" arrivalLane="52i_0" arrivalPos="10.00" arrivalSpeed="11.20" duration="179.00" routeLength="1017.10" waitSteps="47" timeLoss="98.90" rerouteNo="0" devices="tripinfo_right_52" vType="typeC" vaporized=""/>
    <tripinfo id="right_54" depart="172.00" departLane="51o_0" departPos="3.10" departSpeed="0.00" departDelay="8.00" arrival="342.00" arrivalLane="52i_0" arrivalPos="10.00" arrivalSpeed="11.45" duration="170.00" routeLength="1017.10" waitSteps="41" timeLoss="90.39" rerouteNo="0" devices="tripinfo_right_54" vType="typeC" vaporized=""/>
    <tripinfo id="right_up_79" depart="249.00" departLane="51o_0" departPos="3.10" departSpeed="0.00" departDelay="0.00" arrival="344.00" arrivalLane="54i_0" arrivalPos="10.00" arrivalSpeed="11.47" duration="95.00" routeLength="1006.00" waitSteps="0" timeLoss="16.14" rerouteNo="0" devices="tripinfo_right_up_79" vType="typeC" vaporized=""/>
    <tripinfo id="right_61" depart="188.00" departLane="51o_0" departPos="3.10" departSpeed="0.00" departDelay="3.00" arrival="345.00" arrivalLane="52i_0" arrivalPos="10.00" arrivalSpeed="11.02" duration="157.00" routeLength="1017.10" waitSteps="22" timeLoss="77.58" rerouteNo="0" devices="tripinfo_right_61" vType="typeC" vaporized=""/>
    <tripinfo id="right_down_62" depart="193.00" departLane="51o_0" departPos="3.10" departSpeed="0.00" departDelay="5.00" arrival="347.00" arrivalLane="53i_0" arrivalPos="10.00" arrivalSpeed="11.24" duration="154.00" routeLength="1007.41" waitSteps="20" timeLoss="74.21" rerouteNo="0" devices="tripinfo_right_down_62" vType="typeC" vaporized=""/>
    <tripinfo id="down_44" depart="140.00" departLane="54o_0" departPos="3.10" departSpeed="0.00" departDelay="0.00" arrival="358.00" arrivalLane="53i_0" arrivalPos="10.00" arrivalSpeed="11.18" duration="218.00" routeLength="1017.10" waitSteps="101" timeLoss="137.87" rerouteNo="0" devices="tripinfo_down_44" vType="typeC" vaporized=""/>
    <tripinfo id="down_left_60" depart="185.00" departLane="54o_0" departPos="3.10" departSpeed="0.00" departDelay="0.00" arrival="358.00" arrivalLane="53i_1" arrivalPos="10.00" arrivalSpeed="10.90" duration="173.00" routeLength="1017.10" waitSteps="60" timeLoss="93.38" rerouteNo="0" devices="tripinfo_down_left_60" vType="typeC" vaporized=""/>
    <tripinfo id="down_left_65" depart="197.00" departLane="54o_0" departPos="3.10" departSpeed="0.00" departDelay="0.00" arrival="360.00" arrivalLane="53i_0" arrivalPos="10.00" arrivalSpeed="11.44" duration="163.00" routeLength="1017.10" waitSteps="47" timeLoss="83.58" rerouteNo="0" devices="tripinfo_down_left_65" vType="typeC" vaporized=""/>
    <tripinfo id="down_right_75" depart="237.00" departLane="54o_0" departPos="3.10" departSpeed="0.00" departDelay="0.00" arrival="361.00" arrivalLane="51i_0" arrivalPos="10.00" arrivalSpeed="10.75" duration="124.00" routeLength="1007.41" waitSteps="6" timeLoss="44.59" rerouteNo="0" devices="tripinfo_down_right_75" vType="typeC" vaporized=""/>
    <tripinfo id="right_up_84" depart="268.00" departLane="51o_0" departPos="3.10" departSpeed="0.00" departDelay="0.00" arrival="370.00" arrivalLane="54i_0" arrivalPos="10.00" arrivalSpeed="11.49" duration="102.00" routeLength="1006.00" waitSteps="0" timeLoss="22.52" rerouteNo="0" devices="tripinfo_right_up_84" vType="typeC" vaporized=""/>
</tripinfos>
