<?xml version="1.0" encoding="UTF-8"?>

<!-- generated on 03-04-2017 15:27:52 by SUMO gui Version 0.29.0
<?xml version="1.0" encoding="UTF-8"?>

<configuration xmlns:xsi="http://www.w3.org/2001/XMLSchema-instance" xsi:noNamespaceSchemaLocation="http://sumo.dlr.de/xsd/sumo-gui.exeConfiguration.xsd">

    <input>
        <net-file value="data/cross.net.xml"/>
        <route-files value="data/cross.rou.xml"/>
        <additional-files value="data/cross.add.xml"/>
    </input>

    <output>
        <queue-output value="queue.xml"/>
        <tripinfo-output value="tripinfo.xml"/>
    </output>

    <time>
        <begin value="0"/>
    </time>

    <report>
        <verbose value="true"/>
        <duration-log.statistics value="true"/>
        <no-step-log value="true"/>
    </report>

    <traci_server>
        <remote-port value="51063"/>
    </traci_server>

</configuration>
-->

<tripinfos xmlns:xsi="http://www.w3.org/2001/XMLSchema-instance" xsi:noNamespaceSchemaLocation="http://sumo.dlr.de/xsd/tripinfo_file.xsd">
    <tripinfo id="right_up_0" depart="0.00" departLane="51o_0" departPos="7.10" departSpeed="0.00" departDelay="0.00" arrival="91.00" arrivalLane="54i_0" arrivalPos="10.00" arrivalSpeed="11.48" duration="91.00" routeLength="1002.00" waitSteps="0" timeLoss="20.57" rerouteNo="0" devices="tripinfo_right_up_0" vType="typeB" speedFactor="1.00" vaporized=""/>
    <tripinfo id="right_3" depart="8.00" departLane="51o_0" departPos="3.10" departSpeed="0.00" departDelay="6.00" arrival="109.00" arrivalLane="52i_1" arrivalPos="10.00" arrivalSpeed="10.92" duration="101.00" routeLength="1017.10" waitSteps="0" timeLoss="21.62" rerouteNo="0" devices="tripinfo_right_3" vType="typeC" speedFactor="1.00" vaporized=""/>
    <tripinfo id="right_2" depart="4.00" departLane="51o_0" departPos="3.10" departSpeed="0.00" departDelay="3.00" arrival="110.00" arrivalLane="52i_0" arrivalPos="10.00" arrivalSpeed="11.41" duration="106.00" routeLength="1017.10" waitSteps="0" timeLoss="25.90" rerouteNo="0" devices="tripinfo_right_2" vType="typeC" speedFactor="1.00" vaporized=""/>
    <tripinfo id="right_up_5" depart="18.00" departLane="51o_0" departPos="3.10" departSpeed="0.00" departDelay="10.00" arrival="121.00" arrivalLane="54i_0" arrivalPos="10.00" arrivalSpeed="11.16" duration="103.00" routeLength="1006.00" waitSteps="0" timeLoss="24.22" rerouteNo="0" devices="tripinfo_right_up_5" vType="typeC" speedFactor="1.00" vaporized=""/>
    <tripinfo id="right_up_6" depart="22.00" departLane="51o_0" departPos="3.10" departSpeed="0.00" departDelay="8.00" arrival="126.00" arrivalLane="54i_0" arrivalPos="10.00" arrivalSpeed="11.01" duration="104.00" routeLength="1006.00" waitSteps="0" timeLoss="24.91" rerouteNo="0" devices="tripinfo_right_up_6" vType="typeC" speedFactor="1.00" vaporized=""/>
    <tripinfo id="up_left_15" depart="34.00" departLane="53o_0" departPos="3.10" departSpeed="0.00" departDelay="0.00" arrival="131.00" arrivalLane="51i_0" arrivalPos="10.00" arrivalSpeed="11.38" duration="97.00" routeLength="1006.00" waitSteps="0" timeLoss="18.23" rerouteNo="0" devices="tripinfo_up_left_15" vType="typeC" speedFactor="1.00" vaporized=""/>
    <tripinfo id="right_14" depart="32.00" departLane="51o_0" departPos="3.10" departSpeed="0.00" departDelay="0.00" arrival="132.00" arrivalLane="52i_0" arrivalPos="10.00" arrivalSpeed="11.63" duration="100.00" routeLength="1017.10" waitSteps="0" timeLoss="19.97" rerouteNo="0" devices="tripinfo_right_14" vType="typeC" speedFactor="1.00" vaporized=""/>
    <tripinfo id="right_up_16" depart="37.00" departLane="51o_0" departPos="3.10" departSpeed="0.00" departDelay="2.00" arrival="135.00" arrivalLane="54i_0" arrivalPos="10.00" arrivalSpeed="11.23" duration="98.00" routeLength="1006.00" waitSteps="0" timeLoss="18.95" rerouteNo="0" devices="tripinfo_right_up_16" vType="typeC" speedFactor="1.00" vaporized=""/>
    <tripinfo id="right_down_4" depart="13.00" departLane="51o_0" departPos="3.10" departSpeed="0.00" departDelay="9.00" arrival="140.00" arrivalLane="53i_0" arrivalPos="10.00" arrivalSpeed="11.44" duration="127.00" routeLength="1007.41" waitSteps="14" timeLoss="46.89" rerouteNo="0" devices="tripinfo_right_down_4" vType="typeC" speedFactor="1.00" vaporized=""/>
    <tripinfo id="right_down_8" depart="27.00" departLane="51o_0" departPos="3.10" departSpeed="0.00" departDelay="7.00" arrival="142.00" arrivalLane="53i_0" arrivalPos="10.00" arrivalSpeed="11.72" duration="115.00" routeLength="1007.41" waitSteps="1" timeLoss="35.15" rerouteNo="0" devices="tripinfo_right_down_8" vType="typeC" speedFactor="1.00" vaporized=""/>
    <tripinfo id="right_down_17" depart="43.00" departLane="51o_0" departPos="7.10" departSpeed="0.00" departDelay="6.00" arrival="143.00" arrivalLane="53i_1" arrivalPos="10.00" arrivalSpeed="11.31" duration="100.00" routeLength="1003.41" waitSteps="0" timeLoss="28.79" rerouteNo="0" devices="tripinfo_right_down_17" vType="typeB" speedFactor="1.00" vaporized=""/>
    <tripinfo id="right_up_18" depart="47.00" departLane="51o_0" departPos="3.10" departSpeed="0.00" departDelay="9.00" arrival="144.00" arrivalLane="54i_0" arrivalPos="10.00" arrivalSpeed="10.96" duration="97.00" routeLength="1006.00" waitSteps="0" timeLoss="18.35" rerouteNo="0" devices="tripinfo_right_up_18" vType="typeC" speedFactor="1.00" vaporized=""/>
    <tripinfo id="right_down_19" depart="52.00" departLane="51o_0" departPos="3.10" departSpeed="0.00" departDelay="10.00" arrival="153.00" arrivalLane="53i_0" arrivalPos="10.00" arrivalSpeed="11.74" duration="101.00" routeLength="1007.41" waitSteps="0" timeLoss="20.88" rerouteNo="0" devices="tripinfo_right_down_19" vType="typeC" speedFactor="1.00" vaporized=""/>
    <tripinfo id="right_20" depart="57.00" departLane="51o_0" departPos="3.10" departSpeed="0.00" departDelay="15.00" arrival="154.00" arrivalLane="52i_0" arrivalPos="10.00" arrivalSpeed="11.61" duration="97.00" routeLength="1017.10" waitSteps="0" timeLoss="17.49" rerouteNo="0" devices="tripinfo_right_20" vType="typeC" speedFactor="1.00" vaporized=""/>
    <tripinfo id="down_9" depart="23.00" departLane="54o_0" departPos="3.10" departSpeed="0.00" departDelay="2.00" arrival="166.00" arrivalLane="53i_0" arrivalPos="10.00" arrivalSpeed="11.63" duration="143.00" routeLength="1017.10" waitSteps="33" timeLoss="63.11" rerouteNo="0" devices="tripinfo_down_9" vType="typeC" speedFactor="1.00" vaporized=""/>
    <tripinfo id="down_7" depart="19.00" departLane="54o_0" departPos="3.10" departSpeed="0.00" departDelay="0.00" arrival="170.00" arrivalLane="53i_0" arrivalPos="10.00" arrivalSpeed="11.54" duration="151.00" routeLength="1017.10" waitSteps="36" timeLoss="71.28" rerouteNo="0" devices="tripinfo_down_7" vType="typeC" speedFactor="1.00" vaporized=""/>
    <tripinfo id="down_left_11" depart="28.00" departLane="54o_0" departPos="3.10" departSpeed="0.00" departDelay="0.00" arrival="172.00" arrivalLane="53i_0" arrivalPos="10.00" arrivalSpeed="11.70" duration="144.00" routeLength="1017.10" waitSteps="26" timeLoss="64.19" rerouteNo="0" devices="tripinfo_down_left_11" vType="typeC" speedFactor="1.00" vaporized=""/>
    <tripinfo id="up_right_1" depart="1.00" departLane="53o_0" departPos="3.10" departSpeed="0.00" departDelay="0.00" arrival="220.00" arrivalLane="52i_0" arrivalPos="10.00" arrivalSpeed="11.24" duration="219.00" routeLength="1007.41" waitSteps="107" timeLoss="139.57" rerouteNo="0" devices="tripinfo_up_right_1" vType="typeC" speedFactor="1.00" vaporized=""/>
    <tripinfo id="up_right_10" depart="26.00" departLane="53o_0" departPos="3.10" departSpeed="0.00" departDelay="0.00" arrival="222.00" arrivalLane="52i_0" arrivalPos="10.00" arrivalSpeed="11.57" duration="196.00" routeLength="1007.41" waitSteps="86" timeLoss="116.36" rerouteNo="0" devices="tripinfo_up_right_10" vType="typeC" speedFactor="1.00" vaporized=""/>
    <tripinfo id="up_right_29" depart="73.00" departLane="53o_0" departPos="3.10" departSpeed="0.00" departDelay="0.00" arrival="226.00" arrivalLane="52i_0" arrivalPos="10.00" arrivalSpeed="11.09" duration="153.00" routeLength="1007.41" waitSteps="41" timeLoss="73.17" rerouteNo="0" devices="tripinfo_up_right_29" vType="typeC" speedFactor="1.00" vaporized=""/>
    <tripinfo id="up_right_43" depart="131.00" departLane="53o_0" departPos="3.10" departSpeed="0.00" departDelay="0.00" arrival="229.00" arrivalLane="52i_0" arrivalPos="10.00" arrivalSpeed="11.02" duration="98.00" routeLength="1007.41" waitSteps="0" timeLoss="18.53" rerouteNo="0" devices="tripinfo_up_right_43" vType="typeC" speedFactor="1.00" vaporized=""/>
    <tripinfo id="left_up_13" depart="33.00" departLane="52o_0" departPos="3.10" departSpeed="0.00" departDelay="3.00" arrival="248.00" arrivalLane="54i_0" arrivalPos="10.00" arrivalSpeed="11.06" duration="215.00" routeLength="1007.41" waitSteps="101" timeLoss="135.10" rerouteNo="0" devices="tripinfo_left_up_13" vType="typeC" speedFactor="1.00" vaporized=""/>
    <tripinfo id="left_up_21" depart="45.00" departLane="52o_0" departPos="3.10" departSpeed="0.00" departDelay="0.00" arrival="249.00" arrivalLane="54i_1" arrivalPos="10.00" arrivalSpeed="11.41" duration="204.00" routeLength="1007.41" waitSteps="93" timeLoss="124.43" rerouteNo="0" devices="tripinfo_left_up_21" vType="typeC" speedFactor="1.00" vaporized=""/>
    <tripinfo id="left_down_47" depart="146.00" departLane="52o_0" departPos="3.10" departSpeed="0.00" departDelay="0.00" arrival="249.00" arrivalLane="53i_0" arrivalPos="10.00" arrivalSpeed="10.72" duration="103.00" routeLength="1006.00" waitSteps="0" timeLoss="24.23" rerouteNo="0" devices="tripinfo_left_down_47" vType="typeC" speedFactor="1.00" vaporized=""/>
    <tripinfo id="left_12" depart="29.00" departLane="52o_0" departPos="3.10" departSpeed="0.00" departDelay="0.00" arrival="250.00" arrivalLane="51i_0" arrivalPos="10.00" arrivalSpeed="11.47" duration="221.00" routeLength="1017.10" waitSteps="108" timeLoss="140.69" rerouteNo="0" devices="tripinfo_left_12" vType="typeC" speedFactor="1.00" vaporized=""/>
    <tripinfo id="left_down_49" depart="154.00" departLane="52o_0" departPos="7.10" departSpeed="0.00" departDelay="3.00" arrival="250.00" arrivalLane="53i_1" arrivalPos="10.00" arrivalSpeed="11.34" duration="96.00" routeLength="1002.00" waitSteps="0" timeLoss="25.30" rerouteNo="0" devices="tripinfo_left_down_49" vType="typeB" speedFactor="1.00" vaporized=""/>
    <tripinfo id="left_36" depart="98.00" departLane="52o_0" departPos="3.10" departSpeed="0.00" departDelay="0.00" arrival="252.00" arrivalLane="51i_0" arrivalPos="10.00" arrivalSpeed="11.09" duration="154.00" routeLength="1017.10" waitSteps="41" timeLoss="74.36" rerouteNo="0" devices="tripinfo_left_36" vType="typeC" speedFactor="1.00" vaporized=""/>
    <tripinfo id="left_up_34" depart="83.00" departLane="52o_0" departPos="3.10" departSpeed="0.00" departDelay="0.00" arrival="254.00" arrivalLane="54i_0" arrivalPos="10.00" arrivalSpeed="11.81" duration="171.00" routeLength="1007.41" waitSteps="55" timeLoss="91.48" rerouteNo="0" devices="tripinfo_left_up_34" vType="typeC" speedFactor="1.00" vaporized=""/>
    <tripinfo id="left_up_37" depart="103.00" departLane="52o_0" departPos="3.10" departSpeed="0.00" departDelay="4.00" arrival="256.00" arrivalLane="54i_0" arrivalPos="10.00" arrivalSpeed="11.20" duration="153.00" routeLength="1007.41" waitSteps="35" timeLoss="73.51" rerouteNo="0" devices="tripinfo_left_up_37" vType="typeC" speedFactor="1.00" vaporized=""/>
    <tripinfo id="left_55" depart="166.00" departLane="52o_0" departPos="3.10" departSpeed="0.00" departDelay="0.00" arrival="265.00" arrivalLane="51i_0" arrivalPos="10.00" arrivalSpeed="10.83" duration="99.00" routeLength="1017.10" waitSteps="0" timeLoss="19.50" rerouteNo="0" devices="tripinfo_left_55" vType="typeC" speedFactor="1.00" vaporized=""/>
    <tripinfo id="right_22" depart="61.00" departLane="51o_0" departPos="3.10" departSpeed="0.00" departDelay="15.00" arrival="276.00" arrivalLane="52i_0" arrivalPos="10.00" arrivalSpeed="10.77" duration="215.00" routeLength="1017.10" waitSteps="100" timeLoss="134.97" rerouteNo="0" devices="tripinfo_right_22" vType="typeC" speedFactor="1.00" vaporized=""/>
    <tripinfo id="right_23" depart="65.00" departLane="51o_0" departPos="3.10" departSpeed="0.00" departDelay="17.00" arrival="277.00" arrivalLane="52i_1" arrivalPos="10.00" arrivalSpeed="10.83" duration="212.00" routeLength="1017.10" waitSteps="96" timeLoss="132.11" rerouteNo="0" devices="tripinfo_right_23" vType="typeC" speedFactor="1.00" vaporized=""/>
    <tripinfo id="right_24" depart="69.00" departLane="51o_0" departPos="3.10" departSpeed="0.00" departDelay="15.00" arrival="278.00" arrivalLane="52i_0" arrivalPos="10.00" arrivalSpeed="11.14" duration="209.00" routeLength="1017.10" waitSteps="95" timeLoss="129.15" rerouteNo="0" devices="tripinfo_right_24" vType="typeC" speedFactor="1.00" vaporized=""/>
    <tripinfo id="right_up_25" depart="73.00" departLane="51o_0" departPos="3.10" departSpeed="0.00" departDelay="13.00" arrival="278.00" arrivalLane="54i_0" arrivalPos="10.00" arrivalSpeed="10.80" duration="205.00" routeLength="1006.00" waitSteps="92" timeLoss="126.11" rerouteNo="0" devices="tripinfo_right_up_25" vType="typeC" speedFactor="1.00" vaporized=""/>
    <tripinfo id="right_26" depart="78.00" departLane="51o_0" departPos="3.10" departSpeed="0.00" departDelay="18.00" arrival="280.00" arrivalLane="52i_0" arrivalPos="10.00" arrivalSpeed="11.01" duration="202.00" routeLength="1017.10" waitSteps="85" timeLoss="122.46" rerouteNo="0" devices="tripinfo_right_26" vType="typeC" speedFactor="1.00" vaporized=""/>
    <tripinfo id="right_28" depart="87.00" departLane="51o_0" departPos="3.10" departSpeed="0.00" departDelay="19.00" arrival="282.00" arrivalLane="52i_0" arrivalPos="10.00" arrivalSpeed="11.06" duration="195.00" routeLength="1017.10" waitSteps="80" timeLoss="115.55" rerouteNo="0" devices="tripinfo_right_28" vType="typeC" speedFactor="1.00" vaporized=""/>
    <tripinfo id="right_27" depart="83.00" departLane="51o_0" departPos="3.10" departSpeed="0.00" departDelay="19.00" arrival="283.00" arrivalLane="52i_1" arrivalPos="10.00" arrivalSpeed="11.29" duration="200.00" routeLength="1017.10" waitSteps="83" timeLoss="120.41" rerouteNo="0" devices="tripinfo_right_27" vType="typeC" speedFactor="1.00" vaporized=""/>
    <tripinfo id="right_up_30" depart="91.00" departLane="51o_0" departPos="3.10" departSpeed="0.00" departDelay="18.00" arrival="284.00" arrivalLane="54i_0" arrivalPos="10.00" arrivalSpeed="11.39" duration="193.00" routeLength="1006.00" waitSteps="76" timeLoss="113.74" rerouteNo="0" devices="tripinfo_right_up_30" vType="typeC" speedFactor="1.00" vaporized=""/>
    <tripinfo id="right_31" depart="96.00" departLane="51o_0" departPos="3.10" departSpeed="0.00" departDelay="23.00" arrival="285.00" arrivalLane="52i_0" arrivalPos="10.00" arrivalSpeed="10.62" duration="189.00" routeLength="1017.10" waitSteps="70" timeLoss="109.42" rerouteNo="0" devices="tripinfo_right_31" vType="typeC" speedFactor="1.00" vaporized=""/>
    <tripinfo id="right_33" depart="106.00" departLane="51o_0" departPos="3.10" departSpeed="0.00" departDelay="24.00" arrival="287.00" arrivalLane="52i_0" arrivalPos="10.00" arrivalSpeed="11.25" duration="181.00" routeLength="1017.10" waitSteps="67" timeLoss="101.44" rerouteNo="0" devices="tripinfo_right_33" vType="typeC" speedFactor="1.00" vaporized=""/>
    <tripinfo id="right_up_35" depart="111.00" departLane="51o_0" departPos="5.10" departSpeed="0.00" departDelay="27.00" arrival="287.00" arrivalLane="54i_0" arrivalPos="10.00" arrivalSpeed="11.65" duration="176.00" routeLength="1004.00" waitSteps="66" timeLoss="105.10" rerouteNo="0" devices="tripinfo_right_up_35" vType="typeA" speedFactor="1.00" vaporized=""/>
    <tripinfo id="right_32" depart="101.00" departLane="51o_0" departPos="3.10" departSpeed="0.00" departDelay="26.00" arrival="289.00" arrivalLane="52i_0" arrivalPos="10.00" arrivalSpeed="11.68" duration="188.00" routeLength="1017.10" waitSteps="66" timeLoss="107.90" rerouteNo="0" devices="tripinfo_right_32" vType="typeC" speedFactor="1.00" vaporized=""/>
    <tripinfo id="right_up_39" depart="121.00" departLane="51o_0" departPos="3.10" departSpeed="0.00" departDelay="19.00" arrival="291.00" arrivalLane="54i_0" arrivalPos="10.00" arrivalSpeed="10.96" duration="170.00" routeLength="1006.00" waitSteps="53" timeLoss="90.55" rerouteNo="0" devices="tripinfo_right_up_39" vType="typeC" speedFactor="1.00" vaporized=""/>
    <tripinfo id="right_46" depart="141.00" departLane="51o_0" departPos="3.10" departSpeed="0.00" departDelay="0.00" arrival="294.00" arrivalLane="52i_0" arrivalPos="10.00" arrivalSpeed="11.24" duration="153.00" routeLength="1017.10" waitSteps="33" timeLoss="72.77" rerouteNo="0" devices="tripinfo_right_46" vType="typeC" speedFactor="1.00" vaporized=""/>
    <tripinfo id="right_48" depart="147.00" departLane="51o_0" departPos="3.10" departSpeed="0.00" departDelay="0.00" arrival="296.00" arrivalLane="52i_0" arrivalPos="10.00" arrivalSpeed="11.85" duration="149.00" routeLength="1017.10" waitSteps="29" timeLoss="69.33" rerouteNo="0" devices="tripinfo_right_48" vType="typeC" speedFactor="1.00" vaporized=""/>
    <tripinfo id="right_52" depart="162.00" departLane="51o_0" departPos="3.10" departSpeed="0.00" departDelay="6.00" arrival="299.00" arrivalLane="52i_0" arrivalPos="10.00" arrivalSpeed="11.19" duration="137.00" routeLength="1017.10" waitSteps="18" timeLoss="57.23" rerouteNo="0" devices="tripinfo_right_52" vType="typeC" speedFactor="1.00" vaporized=""/>
    <tripinfo id="right_up_59" depart="183.00" departLane="51o_0" departPos="3.10" departSpeed="0.00" departDelay="0.00" arrival="300.00" arrivalLane="54i_0" arrivalPos="10.00" arrivalSpeed="10.84" duration="117.00" routeLength="1006.00" waitSteps="0" timeLoss="37.87" rerouteNo="0" devices="tripinfo_right_up_59" vType="typeC" speedFactor="1.00" vaporized=""/>
    <tripinfo id="right_54" depart="171.00" departLane="51o_0" departPos="3.10" departSpeed="0.00" departDelay="7.00" arrival="301.00" arrivalLane="52i_1" arrivalPos="10.00" arrivalSpeed="11.60" duration="130.00" routeLength="1017.10" waitSteps="11" timeLoss="49.81" rerouteNo="0" devices="tripinfo_right_54" vType="typeC" speedFactor="1.00" vaporized=""/>
    <tripinfo id="right_down_38" depart="115.00" departLane="51o_0" departPos="3.10" departSpeed="0.00" departDelay="15.00" arrival="301.00" arrivalLane="53i_0" arrivalPos="10.00" arrivalSpeed="11.49" duration="186.00" routeLength="1007.41" waitSteps="63" timeLoss="106.36" rerouteNo="0" devices="tripinfo_right_down_38" vType="typeC" speedFactor="1.00" vaporized=""/>
    <tripinfo id="right_40" depart="125.00" departLane="51o_0" departPos="3.10" departSpeed="0.00" departDelay="22.00" arrival="302.00" arrivalLane="52i_0" arrivalPos="10.00" arrivalSpeed="11.76" duration="177.00" routeLength="1017.10" waitSteps="54" timeLoss="97.15" rerouteNo="0" devices="tripinfo_right_40" vType="typeC" speedFactor="1.00" vaporized=""/>
    <tripinfo id="right_61" depart="187.00" departLane="51o_0" departPos="3.10" departSpeed="0.00" departDelay="2.00" arrival="304.00" arrivalLane="52i_0" arrivalPos="10.00" arrivalSpeed="11.29" duration="117.00" routeLength="1017.10" waitSteps="0" timeLoss="37.15" rerouteNo="0" devices="tripinfo_right_61" vType="typeC" speedFactor="1.00" vaporized=""/>
    <tripinfo id="right_66" depart="200.00" departLane="51o_0" departPos="3.10" departSpeed="0.00" departDelay="0.00" arrival="305.00" arrivalLane="52i_0" arrivalPos="10.00" arrivalSpeed="10.54" duration="105.00" routeLength="1017.10" waitSteps="0" timeLoss="25.47" rerouteNo="0" devices="tripinfo_right_66" vType="typeC" speedFactor="1.00" vaporized=""/>
    <tripinfo id="right_41" depart="129.00" departLane="51o_0" departPos="3.10" departSpeed="0.00" departDelay="1.00" arrival="306.00" arrivalLane="52i_1" arrivalPos="10.00" arrivalSpeed="11.12" duration="177.00" routeLength="1017.10" waitSteps="53" timeLoss="97.28" rerouteNo="0" devices="tripinfo_right_41" vType="typeC" speedFactor="1.00" vaporized=""/>
    <tripinfo id="right_down_50" depart="154.00" departLane="51o_0" departPos="7.10" departSpeed="0.00" departDelay="3.00" arrival="307.00" arrivalLane="53i_0" arrivalPos="10.00" arrivalSpeed="11.26" duration="153.00" routeLength="1003.41" waitSteps="38" timeLoss="81.17" rerouteNo="0" devices="tripinfo_right_down_50" vType="typeB" speedFactor="1.00" vaporized=""/>
    <tripinfo id="right_68" depart="209.00" departLane="51o_0" departPos="3.10" departSpeed="0.00" departDelay="0.00" arrival="309.00" arrivalLane="52i_0" arrivalPos="10.00" arrivalSpeed="10.83" duration="100.00" routeLength="1017.10" waitSteps="0" timeLoss="19.77" rerouteNo="0" devices="tripinfo_right_68" vType="typeC" speedFactor="1.00" vaporized=""/>
    <tripinfo id="right_51" depart="157.00" departLane="51o_0" departPos="3.10" departSpeed="0.00" departDelay="4.00" arrival="311.00" arrivalLane="52i_0" arrivalPos="10.00" arrivalSpeed="10.75" duration="154.00" routeLength="1017.10" waitSteps="29" timeLoss="74.39" rerouteNo="0" devices="tripinfo_right_51" vType="typeC" speedFactor="1.00" vaporized=""/>
    <tripinfo id="right_53" depart="167.00" departLane="51o_0" departPos="3.10" departSpeed="0.00" departDelay="9.00" arrival="313.00" arrivalLane="52i_0" arrivalPos="10.00" arrivalSpeed="10.72" duration="146.00" routeLength="1017.10" waitSteps="18" timeLoss="66.32" rerouteNo="0" devices="tripinfo_right_53" vType="typeC" speedFactor="1.00" vaporized=""/>
    <tripinfo id="right_56" depart="176.00" departLane="51o_0" departPos="3.10" departSpeed="0.00" departDelay="7.00" arrival="317.00" arrivalLane="52i_0" arrivalPos="10.00" arrivalSpeed="11.52" duration="141.00" routeLength="1017.10" waitSteps="14" timeLoss="60.80" rerouteNo="0" devices="tripinfo_right_56" vType="typeC" speedFactor="1.00" vaporized=""/>
    <tripinfo id="right_up_69" depart="217.00" departLane="51o_0" departPos="3.10" departSpeed="0.00" departDelay="0.00" arrival="318.00" arrivalLane="54i_0" arrivalPos="10.00" arrivalSpeed="10.92" duration="101.00" routeLength="1006.00" waitSteps="0" timeLoss="22.01" rerouteNo="0" devices="tripinfo_right_up_69" vType="typeC" speedFactor="1.00" vaporized=""/>
    <tripinfo id="right_down_62" depart="191.00" departLane="51o_0" departPos="3.10" departSpeed="0.00" departDelay="3.00" arrival="318.00" arrivalLane="53i_0" arrivalPos="10.00" arrivalSpeed="10.70" duration="127.00" routeLength="1007.41" waitSteps="2" timeLoss="47.03" rerouteNo="0" devices="tripinfo_right_down_62" vType="typeC" speedFactor="1.00" vaporized=""/>
    <tripinfo id="right_down_63" depart="195.00" departLane="51o_0" departPos="3.10" departSpeed="0.00" departDelay="0.00" arrival="323.00" arrivalLane="53i_0" arrivalPos="10.00" arrivalSpeed="11.03" duration="128.00" routeLength="1007.41" waitSteps="0" timeLoss="48.20" rerouteNo="0" devices="tripinfo_right_down_63" vType="typeC" speedFactor="1.00" vaporized=""/>
    <tripinfo id="right_up_70" depart="224.00" departLane="51o_0" departPos="3.10" departSpeed="0.00" departDelay="0.00" arrival="324.00" arrivalLane="54i_0" arrivalPos="10.00" arrivalSpeed="10.98" duration="100.00" routeLength="1006.00" waitSteps="0" timeLoss="21.07" rerouteNo="0" devices="tripinfo_right_up_70" vType="typeC" speedFactor="1.00" vaporized=""/>
    <tripinfo id="down_44" depart="140.00" departLane="54o_0" departPos="3.10" departSpeed="0.00" departDelay="0.00" arrival="329.00" arrivalLane="53i_0" arrivalPos="10.00" arrivalSpeed="10.96" duration="189.00" routeLength="1017.10" waitSteps="72" timeLoss="109.03" rerouteNo="0" devices="tripinfo_down_44" vType="typeC" speedFactor="1.00" vaporized=""/>
    <tripinfo id="down_42" depart="129.00" departLane="54o_0" departPos="3.10" departSpeed="0.00" departDelay="0.00" arrival="331.00" arrivalLane="53i_0" arrivalPos="10.00" arrivalSpeed="10.85" duration="202.00" routeLength="1017.10" waitSteps="90" timeLoss="122.46" rerouteNo="0" devices="tripinfo_down_42" vType="typeC" speedFactor="1.00" vaporized=""/>
    <tripinfo id="down_left_65" depart="197.00" departLane="54o_0" departPos="3.10" departSpeed="0.00" departDelay="0.00" arrival="332.00" arrivalLane="53i_1" arrivalPos="10.00" arrivalSpeed="11.02" duration="135.00" routeLength="1017.10" waitSteps="17" timeLoss="54.96" rerouteNo="0" devices="tripinfo_down_left_65" vType="typeC" speedFactor="1.00" vaporized=""/>
    <tripinfo id="down_left_60" depart="185.00" departLane="54o_0" departPos="3.10" departSpeed="0.00" departDelay="0.00" arrival="334.00" arrivalLane="53i_0" arrivalPos="10.00" arrivalSpeed="11.20" duration="149.00" routeLength="1017.10" waitSteps="32" timeLoss="69.22" rerouteNo="0" devices="tripinfo_down_left_60" vType="typeC" speedFactor="1.00" vaporized=""/>
    <tripinfo id="down_right_75" depart="237.00" departLane="54o_0" departPos="3.10" departSpeed="0.00" departDelay="0.00" arrival="338.00" arrivalLane="51i_0" arrivalPos="10.00" arrivalSpeed="11.36" duration="101.00" routeLength="1007.41" waitSteps="0" timeLoss="21.49" rerouteNo="0" devices="tripinfo_down_right_75" vType="typeC" speedFactor="1.00" vaporized=""/>
    <tripinfo id="up_58" depart="183.00" departLane="53o_0" departPos="3.10" departSpeed="0.00" departDelay="0.00" arrival="356.00" arrivalLane="54i_0" arrivalPos="10.00" arrivalSpeed="11.16" duration="173.00" routeLength="1017.10" waitSteps="60" timeLoss="92.93" rerouteNo="0" devices="tripinfo_up_58" vType="typeC" speedFactor="1.00" vaporized=""/>
    <tripinfo id="up_45" depart="141.00" departLane="53o_0" departPos="3.10" departSpeed="0.00" departDelay="0.00" arrival="358.00" arrivalLane="54i_0" arrivalPos="10.00" arrivalSpeed="11.62" duration="217.00" routeLength="1017.10" waitSteps="104" timeLoss="136.79" rerouteNo="0" devices="tripinfo_up_45" vType="typeC" speedFactor="1.00" vaporized=""/>
    <tripinfo id="up_85" depart="269.00" departLane="53o_0" departPos="3.10" departSpeed="0.00" departDelay="0.00" arrival="367.00" arrivalLane="54i_0" arrivalPos="10.00" arrivalSpeed="11.76" duration="98.00" routeLength="1017.10" waitSteps="0" timeLoss="18.39" rerouteNo="0" devices="tripinfo_up_85" vType="typeC" speedFactor="1.00" vaporized=""/>
    <tripinfo id="up_right_67" depart="209.00" departLane="53o_0" departPos="3.10" departSpeed="0.00" departDelay="0.00" arrival="383.00" arrivalLane="52i_0" arrivalPos="10.00" arrivalSpeed="11.04" duration="174.00" routeLength="1007.41" waitSteps="53" timeLoss="94.05" rerouteNo="0" devices="tripinfo_up_right_67" vType="typeC" speedFactor="1.00" vaporized=""/>
    <tripinfo id="up_right_93" depart="291.00" departLane="53o_0" departPos="3.10" departSpeed="0.00" departDelay="0.00" arrival="390.00" arrivalLane="52i_0" arrivalPos="10.00" arrivalSpeed="11.25" duration="99.00" routeLength="1007.41" waitSteps="0" timeLoss="19.44" rerouteNo="0" devices="tripinfo_up_right_93" vType="typeC" speedFactor="1.00" vaporized=""/>
    <tripinfo id="up_95" depart="295.00" departLane="53o_0" departPos="3.10" departSpeed="0.00" departDelay="2.00" arrival="392.00" arrivalLane="54i_0" arrivalPos="10.00" arrivalSpeed="11.59" duration="97.00" routeLength="1017.10" waitSteps="0" timeLoss="16.72" rerouteNo="0" devices="tripinfo_up_95" vType="typeC" speedFactor="1.00" vaporized=""/>
    <tripinfo id="left_up_57" depart="173.00" departLane="52o_0" departPos="3.10" departSpeed="0.00" departDelay="0.00" arrival="412.00" arrivalLane="54i_0" arrivalPos="10.00" arrivalSpeed="11.19" duration="239.00" routeLength="1007.41" waitSteps="125" timeLoss="159.30" rerouteNo="0" devices="tripinfo_left_up_57" vType="typeC" speedFactor="1.00" vaporized=""/>
    <tripinfo id="left_64" depart="196.00" departLane="52o_0" departPos="3.10" departSpeed="0.00" departDelay="0.00" arrival="413.00" arrivalLane="51i_0" arrivalPos="10.00" arrivalSpeed="11.18" duration="217.00" routeLength="1017.10" waitSteps="102" timeLoss="136.89" rerouteNo="0" devices="tripinfo_left_64" vType="typeC" speedFactor="1.00" vaporized=""/>
    <tripinfo id="left_80" depart="251.00" departLane="52o_0" departPos="3.10" departSpeed="0.00" departDelay="0.00" arrival="414.00" arrivalLane="51i_1" arrivalPos="10.00" arrivalSpeed="11.20" duration="163.00" routeLength="1017.10" waitSteps="50" timeLoss="83.26" rerouteNo="0" devices="tripinfo_left_80" vType="typeC" speedFactor="1.00" vaporized=""/>
    <tripinfo id="left_down_82" depart="265.00" departLane="52o_0" departPos="3.10" departSpeed="0.00" departDelay="0.00" arrival="415.00" arrivalLane="53i_0" arrivalPos="10.00" arrivalSpeed="11.72" duration="150.00" routeLength="1006.00" waitSteps="37" timeLoss="70.77" rerouteNo="0" devices="tripinfo_left_down_82" vType="typeC" speedFactor="1.00" vaporized=""/>
    <tripinfo id="left_up_73" depart="229.00" departLane="52o_0" departPos="3.10" departSpeed="0.00" departDelay="0.00" arrival="416.00" arrivalLane="54i_0" arrivalPos="10.00" arrivalSpeed="10.71" duration="187.00" routeLength="1007.41" waitSteps="70" timeLoss="106.77" rerouteNo="0" devices="tripinfo_left_up_73" vType="typeC" speedFactor="1.00" vaporized=""/>
    <tripinfo id="left_up_81" depart="261.00" departLane="52o_0" departPos="3.10" departSpeed="0.00" departDelay="0.00" arrival="417.00" arrivalLane="54i_0" arrivalPos="10.00" arrivalSpeed="11.55" duration="156.00" routeLength="1007.41" waitSteps="43" timeLoss="76.68" rerouteNo="0" devices="tripinfo_left_up_81" vType="typeC" speedFactor="1.00" vaporized=""/>
    <tripinfo id="left_78" depart="247.00" departLane="52o_0" departPos="3.10" departSpeed="0.00" departDelay="0.00" arrival="417.00" arrivalLane="51i_0" arrivalPos="10.00" arrivalSpeed="11.08" duration="170.00" routeLength="1017.10" waitSteps="51" timeLoss="89.76" rerouteNo="0" devices="tripinfo_left_78" vType="typeC" speedFactor="1.00" vaporized=""/>